LAMMPS FENE chain data file

         4  atoms
         3  bonds
           0  angles
           0  dihedrals
           0  impropers

           1  atom types
           1  bond types
           0  angle types
           0  dihedral types
           0  improper types

 -5.192494  5.192494 xlo xhi
 -5.192494  5.192494 ylo yhi
 -5.192494  5.192494 zlo zhi

Masses

  1  1.0

Atoms

1       1       1     0    1.4634    3.1546    3.8048   0   0   0
2       1       1     0    0.6631    3.0192    3.2737   0   0   0
3       1       1     0    -0.0952    2.4144    3.2889   0   0   0
4       1       1     0    -0.3501    1.8325    4.0219   0   0   0

Bonds

     1  1     1     2
     2  1     2     3
     3  1     3     4
