LAMMPS FENE chain data file

         256  atoms
         255  bonds
           0  angles
           0  dihedrals
           0  impropers

           1  atom types
           1  bond types
           0  angle types
           0  dihedral types
           0  improper types

     0.0      1000.0 xlo xhi
     0.0      1000.0 ylo yhi
     0.0      1000.0 zlo zhi

Masses

  1  1.0

Atoms

         1       1       1  0  54.5148  -44.0798   49.7452   0   0   0
         2       1       1  0  55.1819  -43.7607   49.1176   0   0   0
         3       1       1  0  55.7765  -43.8937   49.8724   0   0   0
         4       1       1  0  55.2182  -44.5512   50.3163   0   0   0
         5       1       1  0  55.1410  -44.9989   49.4593   0   0   0
         6       1       1  0  54.2691  -44.7039   49.7654   0   0   0
         7       1       1  0  55.0366  -44.2392   50.1340   0   0   0
         8       1       1  0  54.5102  -43.6464   50.6930   0   0   0
         9       1       1  0  54.5148  -43.3625   51.6205   0   0   0
        10       1       1  0  54.0150  -43.5096   52.4387   0   0   0
        11       1       1  0  53.7169  -43.2417   53.3220   0   0   0
        12       1       1  0  54.1360  -42.9753   54.1553   0   0   0
        13       1       1  0  54.4802  -43.8556   54.3731   0   0   0
        14       1       1  0  55.3419  -44.1560   54.7018   0   0   0
        15       1       1  0  56.2088  -44.5510   54.5189   0   0   0
        16       1       1  0  57.0562  -44.1145   54.3395   0   0   0
        17       1       1  0  57.0552  -43.1495   54.2415   0   0   0
        18       1       1  0  57.5486  -42.6503   54.9111   0   0   0
        19       1       1  0  57.0803  -41.8971   54.5182   0   0   0
        20       1       1  0  57.3416  -42.4721   53.7820   0   0   0
        21       1       1  0  57.2432  -42.9180   52.9261   0   0   0
        22       1       1  0  56.3819  -43.3532   52.8285   0   0   0
        23       1       1  0  57.0953  -43.9993   52.7079   0   0   0
        24       1       1  0  56.2825  -44.4984   52.5315   0   0   0
        25       1       1  0  56.1499  -43.5762   52.2616   0   0   0
        26       1       1  0  56.9737  -43.8619   51.8366   0   0   0
        27       1       1  0  57.1660  -43.8990   52.7866   0   0   0
        28       1       1  0  57.6728  -44.6996   52.9944   0   0   0
        29       1       1  0  57.6007  -45.4020   53.6594   0   0   0
        30       1       1  0  56.6325  -45.4497   53.6959   0   0   0
        31       1       1  0  56.9851  -45.3465   54.5937   0   0   0
        32       1       1  0  57.3162  -46.2580   54.5693   0   0   0
        33       1       1  0  58.2254  -46.1832   54.2397   0   0   0
        34       1       1  0  58.6279  -45.5739   53.6012   0   0   0
        35       1       1  0  58.1656  -45.8744   52.8032   0   0   0
        36       1       1  0  58.3153  -46.5698   52.1437   0   0   0
        37       1       1  0  57.5403  -46.7048   52.7111   0   0   0
        38       1       1  0  57.1332  -45.8382   52.5554   0   0   0
        39       1       1  0  56.4023  -46.2320   53.0571   0   0   0
        40       1       1  0  56.2488  -45.2850   52.9136   0   0   0
        41       1       1  0  55.3910  -44.8809   53.1180   0   0   0
        42       1       1  0  55.0123  -44.1574   52.5944   0   0   0
        43       1       1  0  55.7941  -44.1553   52.0202   0   0   0
        44       1       1  0  56.0297  -43.3052   51.6168   0   0   0
        45       1       1  0  56.7865  -43.7046   52.0736   0   0   0
        46       1       1  0  57.3604  -43.9781   51.3410   0   0   0
        47       1       1  0  57.8067  -43.1172   51.3193   0   0   0
        48       1       1  0  58.2952  -42.3092   51.0969   0   0   0
        49       1       1  0  57.6121  -41.8544   50.5798   0   0   0
        50       1       1  0  57.0574  -41.0681   50.7026   0   0   0
        51       1       1  0  56.5455  -41.3961   51.4585   0   0   0
        52       1       1  0  55.8752  -41.4486   52.1577   0   0   0
        53       1       1  0  55.9583  -40.5793   51.7353   0   0   0
        54       1       1  0  56.8669  -40.2827   51.5701   0   0   0
        55       1       1  0  57.1741  -40.4681   52.4713   0   0   0
        56       1       1  0  56.3585  -40.5779   52.9849   0   0   0
        57       1       1  0  56.1094  -39.7002   52.6556   0   0   0
        58       1       1  0  56.1969  -40.1612   51.8066   0   0   0
        59       1       1  0  55.8872  -39.5587   51.1124   0   0   0
        60       1       1  0  56.3975  -38.7342   51.1400   0   0   0
        61       1       1  0  56.9864  -39.4925   51.2782   0   0   0
        62       1       1  0  56.8292  -39.3715   50.3287   0   0   0
        63       1       1  0  56.6896  -40.1890   49.8256   0   0   0
        64       1       1  0  56.2470  -40.9220   50.2814   0   0   0
        65       1       1  0  55.6277  -40.7756   49.5494   0   0   0
        66       1       1  0  55.3150  -41.4770   50.1420   0   0   0
        67       1       1  0  55.9665  -41.7485   49.4767   0   0   0
        68       1       1  0  56.3254  -41.2334   50.2162   0   0   0
        69       1       1  0  56.3951  -41.2576   51.1834   0   0   0
        70       1       1  0  56.6347  -40.3384   51.3795   0   0   0
        71       1       1  0  56.3128  -39.9435   52.2050   0   0   0
        72       1       1  0  56.3710  -40.2681   53.1173   0   0   0
        73       1       1  0  56.2205  -41.0461   52.5578   0   0   0
        74       1       1  0  55.7283  -41.6937   52.0294   0   0   0
        75       1       1  0  54.8594  -41.3584   51.7584   0   0   0
        76       1       1  0  53.9922  -41.6192   52.1062   0   0   0
        77       1       1  0  54.1364  -41.2517   52.9922   0   0   0
        78       1       1  0  54.8876  -41.5059   53.5507   0   0   0
        79       1       1  0  55.4382  -42.1690   53.1057   0   0   0
        80       1       1  0  56.3298  -42.4126   53.3999   0   0   0
        81       1       1  0  56.2584  -42.0583   52.4997   0   0   0
        82       1       1  0  55.4446  -42.2208   51.9976   0   0   0
        83       1       1  0  55.8437  -41.4044   51.6584   0   0   0
        84       1       1  0  55.2056  -41.1580   50.9706   0   0   0
        85       1       1  0  54.6141  -41.6755   50.4020   0   0   0
        86       1       1  0  54.1101  -42.3541   50.8776   0   0   0
        87       1       1  0  53.3323  -42.7390   50.4443   0   0   0
        88       1       1  0  53.9642  -43.4235   50.1741   0   0   0
        89       1       1  0  54.7678  -43.0131   49.8182   0   0   0
        90       1       1  0  54.6559  -42.0502   49.8531   0   0   0
        91       1       1  0  55.3579  -41.7932   49.2350   0   0   0
        92       1       1  0  54.7600  -41.7601   48.4719   0   0   0
        93       1       1  0  54.9554  -42.6937   48.6486   0   0   0
        94       1       1  0  55.8360  -43.0762   48.5103   0   0   0
        95       1       1  0  56.1992  -43.6903   49.1674   0   0   0
        96       1       1  0  57.1579  -43.7529   49.0333   0   0   0
        97       1       1  0  56.8621  -43.6874   48.1119   0   0   0
        98       1       1  0  57.4442  -42.9152   48.0363   0   0   0
        99       1       1  0  58.0954  -43.6233   48.1605   0   0   0
       100       1       1  0  57.9245  -44.0563   49.0115   0   0   0
       101       1       1  0  58.8640  -44.2954   48.9800   0   0   0
       102       1       1  0  59.3242  -44.9151   48.3926   0   0   0
       103       1       1  0  58.4991  -45.3996   48.2329   0   0   0
       104       1       1  0  58.5316  -46.0476   48.9539   0   0   0
       105       1       1  0  58.5244  -46.8607   48.4250   0   0   0
       106       1       1  0  58.3375  -47.6151   49.0053   0   0   0
       107       1       1  0  59.0227  -48.2485   48.7400   0   0   0
       108       1       1  0  58.1481  -48.6679   48.7427   0   0   0
       109       1       1  0  58.7040  -48.9435   49.4882   0   0   0
       110       1       1  0  59.1510  -48.6661   50.3032   0   0   0
       111       1       1  0  59.2810  -49.0589   51.1806   0   0   0
       112       1       1  0  58.8685  -48.7823   52.0137   0   0   0
       113       1       1  0  58.4330  -48.1319   52.5867   0   0   0
       114       1       1  0  58.0013  -48.7563   53.1906   0   0   0
       115       1       1  0  57.1617  -48.7365   53.6759   0   0   0
       116       1       1  0  57.6696  -49.2531   54.3208   0   0   0
       117       1       1  0  58.5028  -49.7075   54.1202   0   0   0
       118       1       1  0  59.4135  -50.0043   53.9670   0   0   0
       119       1       1  0  59.5954  -49.9734   54.9192   0   0   0
       120       1       1  0  59.4829  -50.0542   55.8793   0   0   0
       121       1       1  0  59.7022  -49.1931   56.2683   0   0   0
       122       1       1  0  58.7411  -49.2142   56.1388   0   0   0
       123       1       1  0  57.8403  -49.2169   55.7790   0   0   0
       124       1       1  0  58.1690  -48.3086   55.8674   0   0   0
       125       1       1  0  58.8763  -48.9403   55.6633   0   0   0
       126       1       1  0  59.6696  -48.4392   55.4175   0   0   0
       127       1       1  0  59.4979  -47.5023   55.2341   0   0   0
       128       1       1  0  60.4427  -47.3151   55.1187   0   0   0
       129       1       1  0  60.6466  -46.7133   55.8516   0   0   0
       130       1       1  0  61.3805  -47.3266   55.6898   0   0   0
       131       1       1  0  61.2012  -47.4021   56.6400   0   0   0
       132       1       1  0  61.8487  -48.1240   56.6633   0   0   0
       133       1       1  0  62.5617  -48.4926   57.2080   0   0   0
       134       1       1  0  62.4535  -48.2196   58.1325   0   0   0
       135       1       1  0  63.3940  -48.2152   57.8952   0   0   0
       136       1       1  0  63.3757  -48.8758   58.6053   0   0   0
       137       1       1  0  63.9219  -48.1233   58.8819   0   0   0
       138       1       1  0  64.7246  -48.1061   58.3376   0   0   0
       139       1       1  0  64.3659  -48.2602   57.4496   0   0   0
       140       1       1  0  63.4245  -48.4079   57.2683   0   0   0
       141       1       1  0  62.5119  -48.7045   57.1265   0   0   0
       142       1       1  0  62.3546  -49.3655   56.4343   0   0   0
       143       1       1  0  62.2923  -50.1403   57.0147   0   0   0
       144       1       1  0  62.8795  -50.8487   57.3216   0   0   0
       145       1       1  0  62.3920  -50.6425   58.1344   0   0   0
       146       1       1  0  62.3335  -49.7320   57.8051   0   0   0
       147       1       1  0  62.4305  -49.8682   56.8496   0   0   0
       148       1       1  0  62.7931  -48.9911   56.6498   0   0   0
       149       1       1  0  62.1226  -48.7108   56.0073   0   0   0
       150       1       1  0  61.6401  -48.8938   56.8286   0   0   0
       151       1       1  0  61.5829  -48.1477   57.4458   0   0   0
       152       1       1  0  62.5173  -47.9283   57.5865   0   0   0
       153       1       1  0  63.3591  -47.6846   58.0022   0   0   0
       154       1       1  0  63.5605  -47.0532   57.2939   0   0   0
       155       1       1  0  64.0409  -46.3992   57.8254   0   0   0
       156       1       1  0  64.9721  -46.1275   57.8247   0   0   0
       157       1       1  0  65.3981  -45.6841   58.5749   0   0   0
       158       1       1  0  65.8244  -44.8227   58.7059   0   0   0
       159       1       1  0  65.7719  -43.8626   58.8339   0   0   0
       160       1       1  0  65.4272  -43.6362   57.9560   0   0   0
       161       1       1  0  65.8666  -44.1062   57.2301   0   0   0
       162       1       1  0  65.6331  -44.6474   56.4597   0   0   0
       163       1       1  0  65.5194  -44.2985   55.5618   0   0   0
       164       1       1  0  66.1364  -44.8170   55.0220   0   0   0
       165       1       1  0  65.6597  -45.6614   55.0475   0   0   0
       166       1       1  0  65.1606  -44.9042   55.3916   0   0   0
       167       1       1  0  65.6398  -44.1436   55.7560   0   0   0
       168       1       1  0  66.0529  -44.6060   56.5019   0   0   0
       169       1       1  0  65.9643  -44.2393   57.3955   0   0   0
       170       1       1  0  65.5251  -43.4057   57.6258   0   0   0
       171       1       1  0  65.7265  -42.4571   57.6479   0   0   0
       172       1       1  0  66.3340  -42.7280   58.3540   0   0   0
       173       1       1  0  66.5327  -43.3482   57.6352   0   0   0
       174       1       1  0  65.6458  -43.6690   57.4088   0   0   0
       175       1       1  0  66.1788  -43.5592   56.6059   0   0   0
       176       1       1  0  66.1829  -43.7676   55.6586   0   0   0
       177       1       1  0  65.6752  -44.3689   56.2256   0   0   0
       178       1       1  0  65.7622  -44.6022   57.1631   0   0   0
       179       1       1  0  66.0358  -44.2341   58.0178   0   0   0
       180       1       1  0  65.5568  -43.7210   58.6873   0   0   0
       181       1       1  0  64.6303  -43.9207   58.8937   0   0   0
       182       1       1  0  63.8630  -43.4322   59.2304   0   0   0
       183       1       1  0  63.9318  -43.6561   60.1717   0   0   0
       184       1       1  0  63.4444  -44.4123   59.8092   0   0   0
       185       1       1  0  63.8629  -45.1486   59.3364   0   0   0
       186       1       1  0  63.1000  -44.9300   58.7786   0   0   0
       187       1       1  0  63.1075  -44.8928   57.8093   0   0   0
       188       1       1  0  62.3626  -44.3248   58.0613   0   0   0
       189       1       1  0  61.5084  -44.7621   58.2024   0   0   0
       190       1       1  0  60.5633  -44.6521   58.0135   0   0   0
       191       1       1  0  60.6869  -45.4815   57.5260   0   0   0
       192       1       1  0  60.2236  -46.0551   58.1562   0   0   0
       193       1       1  0  60.2093  -46.8458   57.5945   0   0   0
       194       1       1  0  59.7002  -46.8960   58.4186   0   0   0
       195       1       1  0  59.5119  -46.8120   59.3664   0   0   0
       196       1       1  0  60.4654  -46.6501   59.4415   0   0   0
       197       1       1  0  60.4499  -45.8292   58.9250   0   0   0
       198       1       1  0  61.4070  -45.7089   59.0266   0   0   0
       199       1       1  0  61.3404  -45.7330   58.0592   0   0   0
       200       1       1  0  60.4164  -45.8740   58.3187   0   0   0
       201       1       1  0  60.3431  -45.1795   57.6455   0   0   0
       202       1       1  0  59.4661  -44.8776   57.3614   0   0   0
       203       1       1  0  58.6414  -45.1384   57.8004   0   0   0
       204       1       1  0  59.1811  -45.8956   57.5244   0   0   0
       205       1       1  0  59.2916  -45.6885   56.5832   0   0   0
       206       1       1  0  58.7599  -46.4071   56.2065   0   0   0
       207       1       1  0  59.1810  -47.0795   56.7646   0   0   0
       208       1       1  0  58.7694  -47.1619   57.6391   0   0   0
       209       1       1  0  59.6022  -47.1657   58.1364   0   0   0
       210       1       1  0  58.9280  -47.0797   58.8285   0   0   0
       211       1       1  0  59.0590  -46.4045   59.5125   0   0   0
       212       1       1  0  59.7788  -46.9785   59.8180   0   0   0
       213       1       1  0  60.0030  -47.7306   59.2480   0   0   0
       214       1       1  0  60.1039  -48.5872   59.6917   0   0   0
       215       1       1  0  60.9904  -48.7303   59.3247   0   0   0
       216       1       1  0  60.9352  -47.7940   59.5723   0   0   0
       217       1       1  0  60.2423  -48.1055   58.9690   0   0   0
       218       1       1  0  60.1937  -48.5881   59.8090   0   0   0
       219       1       1  0  59.5981  -47.8520   60.0194   0   0   0
       220       1       1  0  59.0127  -48.2716   60.6691   0   0   0
       221       1       1  0  59.7533  -48.2708   61.2955   0   0   0
       222       1       1  0  59.0866  -48.1338   61.9866   0   0   0
       223       1       1  0  58.5414  -47.3449   61.8407   0   0   0
       224       1       1  0  57.7551  -46.8263   62.0726   0   0   0
       225       1       1  0  57.7434  -47.4212   62.8387   0   0   0
       226       1       1  0  56.9880  -47.3393   63.4416   0   0   0
       227       1       1  0  57.6272  -46.6933   63.7809   0   0   0
       228       1       1  0  57.5735  -46.4790   62.8364   0   0   0
       229       1       1  0  58.0069  -47.2884   62.5237   0   0   0
       230       1       1  0  57.5324  -47.8097   63.1900   0   0   0
       231       1       1  0  57.6720  -47.8608   64.1486   0   0   0
       232       1       1  0  56.9991  -47.3091   64.5772   0   0   0
       233       1       1  0  57.1903  -46.6155   63.9266   0   0   0
       234       1       1  0  56.3683  -46.1131   63.8132   0   0   0
       235       1       1  0  55.6972  -46.3408   64.4755   0   0   0
       236       1       1  0  55.4990  -47.2291   64.1401   0   0   0
       237       1       1  0  56.2551  -47.7962   63.9217   0   0   0
       238       1       1  0  56.4271  -47.1483   63.2206   0   0   0
       239       1       1  0  55.9556  -47.8826   62.7971   0   0   0
       240       1       1  0  55.1297  -47.4501   63.0647   0   0   0
       241       1       1  0  54.6500  -48.2512   62.8020   0   0   0
       242       1       1  0  54.3837  -48.0804   63.7189   0   0   0
       243       1       1  0  54.7713  -47.4001   64.2915   0   0   0
       244       1       1  0  53.9311  -46.9182   64.2398   0   0   0
       245       1       1  0  54.1669  -45.9938   64.4153   0   0   0
       246       1       1  0  53.7006  -45.1441   64.4531   0   0   0
       247       1       1  0  53.1895  -44.5506   65.0254   0   0   0
       248       1       1  0  53.8176  -44.1580   65.6516   0   0   0
       249       1       1  0  54.4296  -43.6703   65.0784   0   0   0
       250       1       1  0  53.6304  -43.1298   65.1785   0   0   0
       251       1       1  0  53.2620  -42.2433   65.0397   0   0   0
       252       1       1  0  53.5889  -41.5769   65.6641   0   0   0
       253       1       1  0  54.1193  -41.4714   64.8587   0   0   0
       254       1       1  0  54.7748  -41.8480   64.2510   0   0   0
       255       1       1  0  55.5587  -41.6381   63.7196   0   0   0
       256       1       1  0  56.1790  -42.3199   64.0220   0   0   0

Bonds

        1  1        1        2
        2  1        2        3
        3  1        3        4
        4  1        4        5
        5  1        5        6
        6  1        6        7
        7  1        7        8
        8  1        8        9
        9  1        9       10
       10  1       10       11
       11  1       11       12
       12  1       12       13
       13  1       13       14
       14  1       14       15
       15  1       15       16
       16  1       16       17
       17  1       17       18
       18  1       18       19
       19  1       19       20
       20  1       20       21
       21  1       21       22
       22  1       22       23
       23  1       23       24
       24  1       24       25
       25  1       25       26
       26  1       26       27
       27  1       27       28
       28  1       28       29
       29  1       29       30
       30  1       30       31
       31  1       31       32
       32  1       32       33
       33  1       33       34
       34  1       34       35
       35  1       35       36
       36  1       36       37
       37  1       37       38
       38  1       38       39
       39  1       39       40
       40  1       40       41
       41  1       41       42
       42  1       42       43
       43  1       43       44
       44  1       44       45
       45  1       45       46
       46  1       46       47
       47  1       47       48
       48  1       48       49
       49  1       49       50
       50  1       50       51
       51  1       51       52
       52  1       52       53
       53  1       53       54
       54  1       54       55
       55  1       55       56
       56  1       56       57
       57  1       57       58
       58  1       58       59
       59  1       59       60
       60  1       60       61
       61  1       61       62
       62  1       62       63
       63  1       63       64
       64  1       64       65
       65  1       65       66
       66  1       66       67
       67  1       67       68
       68  1       68       69
       69  1       69       70
       70  1       70       71
       71  1       71       72
       72  1       72       73
       73  1       73       74
       74  1       74       75
       75  1       75       76
       76  1       76       77
       77  1       77       78
       78  1       78       79
       79  1       79       80
       80  1       80       81
       81  1       81       82
       82  1       82       83
       83  1       83       84
       84  1       84       85
       85  1       85       86
       86  1       86       87
       87  1       87       88
       88  1       88       89
       89  1       89       90
       90  1       90       91
       91  1       91       92
       92  1       92       93
       93  1       93       94
       94  1       94       95
       95  1       95       96
       96  1       96       97
       97  1       97       98
       98  1       98       99
       99  1       99      100
      100  1      100      101
      101  1      101      102
      102  1      102      103
      103  1      103      104
      104  1      104      105
      105  1      105      106
      106  1      106      107
      107  1      107      108
      108  1      108      109
      109  1      109      110
      110  1      110      111
      111  1      111      112
      112  1      112      113
      113  1      113      114
      114  1      114      115
      115  1      115      116
      116  1      116      117
      117  1      117      118
      118  1      118      119
      119  1      119      120
      120  1      120      121
      121  1      121      122
      122  1      122      123
      123  1      123      124
      124  1      124      125
      125  1      125      126
      126  1      126      127
      127  1      127      128
      128  1      128      129
      129  1      129      130
      130  1      130      131
      131  1      131      132
      132  1      132      133
      133  1      133      134
      134  1      134      135
      135  1      135      136
      136  1      136      137
      137  1      137      138
      138  1      138      139
      139  1      139      140
      140  1      140      141
      141  1      141      142
      142  1      142      143
      143  1      143      144
      144  1      144      145
      145  1      145      146
      146  1      146      147
      147  1      147      148
      148  1      148      149
      149  1      149      150
      150  1      150      151
      151  1      151      152
      152  1      152      153
      153  1      153      154
      154  1      154      155
      155  1      155      156
      156  1      156      157
      157  1      157      158
      158  1      158      159
      159  1      159      160
      160  1      160      161
      161  1      161      162
      162  1      162      163
      163  1      163      164
      164  1      164      165
      165  1      165      166
      166  1      166      167
      167  1      167      168
      168  1      168      169
      169  1      169      170
      170  1      170      171
      171  1      171      172
      172  1      172      173
      173  1      173      174
      174  1      174      175
      175  1      175      176
      176  1      176      177
      177  1      177      178
      178  1      178      179
      179  1      179      180
      180  1      180      181
      181  1      181      182
      182  1      182      183
      183  1      183      184
      184  1      184      185
      185  1      185      186
      186  1      186      187
      187  1      187      188
      188  1      188      189
      189  1      189      190
      190  1      190      191
      191  1      191      192
      192  1      192      193
      193  1      193      194
      194  1      194      195
      195  1      195      196
      196  1      196      197
      197  1      197      198
      198  1      198      199
      199  1      199      200
      200  1      200      201
      201  1      201      202
      202  1      202      203
      203  1      203      204
      204  1      204      205
      205  1      205      206
      206  1      206      207
      207  1      207      208
      208  1      208      209
      209  1      209      210
      210  1      210      211
      211  1      211      212
      212  1      212      213
      213  1      213      214
      214  1      214      215
      215  1      215      216
      216  1      216      217
      217  1      217      218
      218  1      218      219
      219  1      219      220
      220  1      220      221
      221  1      221      222
      222  1      222      223
      223  1      223      224
      224  1      224      225
      225  1      225      226
      226  1      226      227
      227  1      227      228
      228  1      228      229
      229  1      229      230
      230  1      230      231
      231  1      231      232
      232  1      232      233
      233  1      233      234
      234  1      234      235
      235  1      235      236
      236  1      236      237
      237  1      237      238
      238  1      238      239
      239  1      239      240
      240  1      240      241
      241  1      241      242
      242  1      242      243
      243  1      243      244
      244  1      244      245
      245  1      245      246
      246  1      246      247
      247  1      247      248
      248  1      248      249
      249  1      249      250
      250  1      250      251
      251  1      251      252
      252  1      252      253
      253  1      253      254
      254  1      254      255
      255  1      255      256
