LAMMPS FENE chain data file
       256 atoms
         255  bonds
           0  angles
           0  dihedrals
           0  impropers
           1  atom types
           1  bond types
           0  angle types
           0  dihedral types
           0  improper types
       0.0 1000.0 xlo xhi
       0.0 1000.0 ylo yhi
       0.0 1000.0 zlo zhi
Masses

  1  1.0
Atoms

1 1 1 0 46.4978 7.73201 668.056 0 0 -1
2 1 1 0 46.5932 7.84988 667.033 0 0 -1
3 1 1 0 45.6893 7.52539 667.308 0 0 -1
4 1 1 0 44.8891 7.80195 667.971 0 0 -1
5 1 1 0 45.5797 8.08189 668.802 0 0 -1
6 1 1 0 46.292 7.39583 669.007 0 0 -1
7 1 1 -1.67 47.0302 8.01764 669.544 0 0 -1
8 1 1 -1.67 47.4382 7.85912 668.628 0 0 -1
9 1 1 0 47.2244 6.86769 668.538 0 0 -1
10 1 1 0 46.8093 5.78631 668.599 0 0 -1
11 1 1 0 47.1787 5.94974 667.636 0 0 -1
12 1 1 0 46.473 6.67749 667.64 0 0 -1
13 1 1 0 46.0437 5.54663 667.34 0 0 -1
14 1 1 0 45.719 6.54782 666.54 0 0 -1
15 1 1 0 44.886 7.16916 666.552 0 0 -1
16 1 1 0 45.0728 5.78678 666.808 0 0 -1
17 1 1 0 45.3591 6.48158 667.644 0 0 -1
18 1 1 -1.67 44.4296 6.12228 667.574 0 0 -1
19 1 1 0 43.8642 5.9932 666.767 0 0 -1
20 1 1 0 43.5332 6.95013 666.81 0 0 -1
21 1 1 -1.67 44.2494 6.72656 665.904 0 0 -1
22 1 1 -1.67 43.336 7.21604 665.671 0 0 -1
23 1 1 0 42.2919 6.53557 665.099 0 0 -1
24 1 1 0 41.7095 5.98554 664.534 0 0 -1
25 1 1 -1.67 41.4668 5.24566 663.543 0 0 -1
26 1 1 0 40.5232 5.02869 663.987 0 0 -1
27 1 1 -1.67 39.5473 4.42892 664.075 0 0 -1
28 1 1 0 39.3636 3.83859 665.049 0 0 -1
29 1 1 0 38.4653 3.98101 665.511 0 0 -1
30 1 1 0 37.9814 5.00194 665.484 0 0 -1
31 1 1 0 37.1349 4.46627 665.102 0 0 -1
32 1 1 0 36.7334 5.39007 665.188 0 0 -1
33 1 1 0 35.9584 4.73088 665.779 0 0 -1
34 1 1 0 34.9873 4.23774 665.517 0 0 -1
35 1 1 0 35.0664 5.25681 664.93 0 0 -1
36 1 1 -1.67 34.1223 4.97327 665.402 0 0 -1
37 1 1 0 33.6262 4.27562 664.819 0 0 -1
38 1 1 0 32.6407 4.22942 664.651 0 0 -1
39 1 1 0 31.936 3.45314 664.075 0 0 -1
40 1 1 0 31.0562 3.81956 664.408 0 0 -1
41 1 1 0 30.0941 4.34943 664.679 0 0 -1
42 1 1 0 30.0336 4.46126 663.722 0 0 -1
43 1 1 -1.67 30.9709 4.73557 663.946 0 0 -1
44 1 1 0 31.0977 4.13231 663.121 0 0 -1
45 1 1 0 30.2409 4.3555 662.63 0 0 -1
46 1 1 0 29.851 3.25345 662.794 0 0 -1
47 1 1 0 30.4197 3.45454 663.694 0 0 -1
48 1 1 0 30.1022 3.34249 664.633 0 0 -1
49 1 1 0 29.5647 3.72282 665.589 0 0 -1
50 1 1 0 29.0074 4.31991 664.929 0 0 -1
51 1 1 0 28.0074 4.42112 664.91 0 0 -1
52 1 1 -1.67 27.0213 4.29536 664.679 0 0 -1
53 1 1 0 26.3406 3.90388 665.376 0 0 -1
54 1 1 0 26.2833 2.85743 665.577 0 0 -1
55 1 1 0 25.9023 2.65486 666.529 0 0 -1
56 1 1 0 25.6537 3.44901 667.183 0 0 -1
57 1 1 0 24.9173 3.60327 667.888 0 0 -1
58 1 1 0 24.8161 4.60435 667.238 0 0 -1
59 1 1 0 24.5023 4.60927 668.344 0 0 -1
60 1 1 0 23.719 3.97879 668.23 0 0 -1
61 1 1 0 23.6601 3.48715 669.097 0 0 -1
62 1 1 0 24.7391 3.04596 669.044 0 0 -1
63 1 1 0 24.3305 2.8784 670.088 0 0 -1
64 1 1 0 23.6148 2.60121 671.008 0 0 -1
65 1 1 -1.67 22.6896 1.95942 671.025 0 0 -1
66 1 1 -1.67 22.8456 2.36694 672.041 0 0 -1
67 1 1 0 23.8356 2.45896 672.249 0 0 -1
68 1 1 -1.67 23.3504 3.27294 672.593 0 0 -1
69 1 1 0 22.7198 2.6195 673.541 0 0 -1
70 1 1 0 22.1055 1.78068 674.188 0 0 -1
71 1 1 0 21.6359 2.60825 674.726 0 0 -1
72 1 1 0 21.1497 2.24024 675.691 0 0 -1
73 1 1 0 21.0958 1.8437 676.651 0 0 -1
74 1 1 0 21.7862 1.30322 677.281 0 0 -1
75 1 1 0 21.4107 2.16498 677.695 0 0 -1
76 1 1 -1.67 20.9695 1.52229 678.349 0 0 -1
77 1 1 -1.67 21.4866 0.858697 679.029 0 0 -1
78 1 1 0 21.1101 1000.83 679.981 0 -1 -1
79 1 1 0 20.8741 1000.66 681.05 0 -1 -1
80 1 1 0 21.2572 999.744 681.76 0 -1 -1
81 1 1 -1.67 20.5709 999.285 682.785 0 -1 -1
82 1 1 0 20.8078 998.583 683.588 0 -1 -1
83 1 1 0 20.5026 997.616 683.257 0 -1 -1
84 1 1 0 19.6839 997.276 684.043 0 -1 -1
85 1 1 0 19.0561 996.576 684.487 0 -1 -1
86 1 1 0 18.5158 995.939 685.154 0 -1 -1
87 1 1 0 18.5162 994.863 685.088 0 -1 -1
88 1 1 -1.67 19.5105 994.828 685.112 0 -1 -1
89 1 1 0 19.1352 993.96 685.733 0 -1 -1
90 1 1 0 17.9744 993.73 685.896 0 -1 -1
91 1 1 0 17.5482 992.675 685.659 0 -1 -1
92 1 1 0 17.6756 993.15 684.719 0 -1 -1
93 1 1 0 16.8897 992.632 684.332 0 -1 -1
94 1 1 0 16.3482 992.318 683.409 0 -1 -1
95 1 1 0 17.4681 992.231 683.325 0 -1 -1
96 1 1 0 16.9227 991.272 682.812 0 -1 -1
97 1 1 0 16.582 990.169 683.144 0 -1 -1
98 1 1 0 16.8823 989.625 682.449 0 -1 -1
99 1 1 0 17.5489 988.9 682.845 0 -1 -1
100 1 1 -1.67 17.2409 988.074 682.372 0 -1 -1
101 1 1 0 16.1294 988.751 682.653 0 -1 -1
102 1 1 0 15.3903 989.594 682.438 0 -1 -1
103 1 1 -1.67 16.1407 989.33 681.744 0 -1 -1
104 1 1 0 16.3145 988.243 681.358 0 -1 -1
105 1 1 0 15.5452 987.803 681.999 0 -1 -1
106 1 1 0 15.4357 988.612 681.421 0 -1 -1
107 1 1 0 14.6564 988.671 682.193 0 -1 -1
108 1 1 0 14.5935 989.017 683.209 0 -1 -1
109 1 1 -1.67 13.5782 989.167 682.946 0 -1 -1
110 1 1 0 12.6817 988.717 682.814 0 -1 -1
111 1 1 0 12.1424 989.577 682.738 0 -1 -1
112 1 1 0 12.031 989.292 683.769 0 -1 -1
113 1 1 0 11.4908 990.141 683.857 0 -1 -1
114 1 1 -1.67 10.5248 990.236 683.393 0 -1 -1
115 1 1 0 11.0151 991.17 683.65 0 -1 -1
116 1 1 0 10.6442 990.439 684.449 0 -1 -1
117 1 1 0 10.8102 991.38 684.686 0 -1 -1
118 1 1 0 10.7099 992.349 684.351 0 -1 -1
119 1 1 0 10.0767 992.802 684.995 0 -1 -1
120 1 1 0 9.56548 993.793 685.176 0 -1 -1
121 1 1 0 8.95961 994.537 684.885 0 -1 -1
122 1 1 0 9.29055 995.473 685.412 0 -1 -1
123 1 1 0 9.08718 994.593 686.184 0 -1 -1
124 1 1 -1.67 8.00445 994.883 686.445 0 -1 -1
125 1 1 0 7.9855 995.641 685.709 0 -1 -1
126 1 1 0 7.84602 996.497 686.209 0 -1 -1
127 1 1 0 7.11624 997.138 686.531 0 -1 -1
128 1 1 0 7.00286 998.311 686.882 0 -1 -1
129 1 1 0 6.00138 998.234 686.454 0 -1 -1
130 1 1 0 5.46407 998.475 687.333 0 -1 -1
131 1 1 0 5.72883 999.607 687.848 0 -1 -1
132 1 1 0 5.1578 0.453935 688.081 0 0 -1
133 1 1 -1.67 4.10332 0.766874 687.992 0 0 -1
134 1 1 -1.67 3.74412 1.87496 687.948 0 0 -1
135 1 1 0 3.02951 2.54516 688.372 0 0 -1
136 1 1 0 2.07135 2.70568 687.98 0 0 -1
137 1 1 0 2.1544 3.71333 688.225 0 0 -1
138 1 1 0 1.73477 4.41765 687.467 0 0 -1
139 1 1 0 1.61467 5.41419 687.57 0 0 -1
140 1 1 0 2.02438 6.4521 687.724 0 0 -1
141 1 1 0 1.74843 7.69846 687.671 0 0 -1
142 1 1 -1.67 1.04322 7.82072 686.797 0 0 -1
143 1 1 0 1000.73 8.509 686.036 -1 0 -1
144 1 1 0 999.713 8.32873 685.957 -1 0 -1
145 1 1 -1.67 999.056 9.14378 686.006 -1 0 -1
146 1 1 0 997.908 9.13191 686.234 -1 0 -1
147 1 1 0 998.102 10.0679 685.635 -1 0 -1
148 1 1 0 997.911 9.97623 684.596 -1 0 -1
149 1 1 0 997.456 11.1663 684.2 -1 0 -1
150 1 1 0 996.899 12.0135 684.19 -1 0 -1
151 1 1 0 996.019 11.5161 684.427 -1 0 -1
152 1 1 -1.67 995.918 12.603 684.215 -1 0 -1
153 1 1 -1.67 994.995 13.146 684.827 -1 0 -1
154 1 1 0 994.437 13.2587 685.78 -1 0 -1
155 1 1 0 994.421 13.7716 686.755 -1 0 -1
156 1 1 0 993.299 13.7166 687.359 -1 0 -1
157 1 1 0 992.403 13.4088 686.974 -1 0 -1
158 1 1 0 992.203 12.4295 686.408 -1 0 -1
159 1 1 0 991.606 12.8449 687.278 -1 0 -1
160 1 1 0 991.627 12.3781 688.198 -1 0 -1
161 1 1 0 991.307 12.5124 689.157 -1 0 -1
162 1 1 0 991.555 13.4717 688.889 -1 0 -1
163 1 1 0 992.629 13.9943 689.057 -1 0 -1
164 1 1 0 992.965 14.4352 688.09 -1 0 -1
165 1 1 0 992.697 14.5492 687.075 -1 0 -1
166 1 1 0 993.407 15.3301 686.663 -1 0 -1
167 1 1 0 992.833 15.4805 687.621 -1 0 -1
168 1 1 0 992.002 15.4917 687.06 -1 0 -1
169 1 1 0 991.641 14.6181 687.42 -1 0 -1
170 1 1 0 991.217 13.8959 686.517 -1 0 -1
171 1 1 0 990.79 14.2096 685.636 -1 0 -1
172 1 1 0 989.885 14.5027 685.916 -1 0 -1
173 1 1 0 989.207 13.743 685.885 -1 0 -1
174 1 1 0 989.004 12.8471 686.747 -1 0 -1
175 1 1 0 989.586 12.5304 687.702 -1 0 -1
176 1 1 0 990.389 11.8807 687.186 -1 0 -1
177 1 1 0 990.516 11.2052 688.182 -1 0 -1
178 1 1 0 990.385 12.2421 688.723 -1 0 -1
179 1 1 -1.67 990.225 13.2219 688.3 -1 0 -1
180 1 1 0 990.853 13.5395 687.607 -1 0 -1
181 1 1 0 991.773 13.8106 688.001 -1 0 -1
182 1 1 0 990.751 14.2254 688.388 -1 0 -1
183 1 1 0 991.643 14.6392 688.72 -1 0 -1
184 1 1 0 991.403 15.6573 688.329 -1 0 -1
185 1 1 0 990.297 15.5511 688.481 -1 0 -1
186 1 1 0 989.658 15.8836 687.715 -1 0 -1
187 1 1 0 990.031 16.8558 688.307 -1 0 -1
188 1 1 0 989.125 16.8967 687.787 -1 0 -1
189 1 1 -1.67 989.936 16.7489 687.148 -1 0 -1
190 1 1 0 990.096 16.3115 686.198 -1 0 -1
191 1 1 0 989.008 16.367 686.381 -1 0 -1
192 1 1 0 988.862 16.2632 685.417 -1 0 -1
193 1 1 0 989.778 16.2438 684.966 -1 0 -1
194 1 1 0 989.436 15.4447 685.651 -1 0 -1
195 1 1 0 988.65 15.3753 684.823 -1 0 -1
196 1 1 0 988.265 14.7513 685.628 -1 0 -1
197 1 1 0 989.045 14.4835 684.966 -1 0 -1
198 1 1 0 990.063 14.8346 684.865 -1 0 -1
199 1 1 0 990.645 15.4131 685.525 -1 0 -1
200 1 1 0 991.14 14.9959 686.387 -1 0 -1
201 1 1 0 992.293 14.9431 686.129 -1 0 -1
202 1 1 0 991.885 15.7643 685.617 -1 0 -1
203 1 1 0 992.399 16.7528 685.014 -1 0 -1
204 1 1 -1.67 991.73 16.9326 685.717 -1 0 -1
205 1 1 0 990.871 17.3212 686.102 -1 0 -1
206 1 1 0 991.135 16.1078 686.254 -1 0 -1
207 1 1 0 991.076 15.6485 687.167 -1 0 -1
208 1 1 0 990.106 15.4233 686.781 -1 0 -1
209 1 1 0 990.602 14.8463 687.594 -1 0 -1
210 1 1 0 989.429 14.7199 687.665 -1 0 -1
211 1 1 0 990.246 14.2862 686.808 -1 0 -1
212 1 1 0 990.051 13.2279 687.02 -1 0 -1
213 1 1 0 990.237 13.3366 685.903 -1 0 -1
214 1 1 0 991.048 13.2024 685.293 -1 0 -1
215 1 1 0 991.137 13.4203 684.266 -1 0 -1
216 1 1 0 991.086 14.6207 684.61 -1 0 -1
217 1 1 0 991.99 15.11 684.604 -1 0 -1
218 1 1 0 991.61 16.1685 684.37 -1 0 -1
219 1 1 0 992.452 15.6442 683.882 -1 0 -1
220 1 1 0 993.044 16.6134 683.252 -1 0 -1
221 1 1 0 993.155 16.8808 682.203 -1 0 -1
222 1 1 0 993.505 18.003 681.708 -1 0 -1
223 1 1 0 994.173 17.8666 680.977 -1 0 -1
224 1 1 0 994.086 18.9856 680.795 -1 0 -1
225 1 1 0 994.419 19.8308 680.531 -1 0 -1
226 1 1 0 994.731 20.1294 679.521 -1 0 -1
227 1 1 0 994.848 20.4221 678.359 -1 0 -1
228 1 1 0 995.068 21.0111 677.538 -1 0 -1
229 1 1 0 995.779 20.7282 676.918 -1 0 -1
230 1 1 0 996.433 21.5953 676.179 -1 0 -1
231 1 1 0 997.495 22.3028 675.97 -1 0 -1
232 1 1 0 996.816 23.2832 675.664 -1 0 -1
233 1 1 0 996.508 23.3061 674.636 -1 0 -1
234 1 1 0 995.636 23.3607 673.958 -1 0 -1
235 1 1 0 995.203 24.3422 674.036 -1 0 -1
236 1 1 0 995.514 24.6822 674.955 -1 0 -1
237 1 1 0 995.941 23.734 675.575 -1 0 -1
238 1 1 0 995.976 23.1989 676.51 -1 0 -1
239 1 1 0 995.623 22.1785 676.479 -1 0 -1
240 1 1 0 995.822 22.3311 675.395 -1 0 -1
241 1 1 0 995.255 21.5364 675.623 -1 0 -1
242 1 1 0 994.518 22.3247 675.224 -1 0 -1
243 1 1 -1.67 995.099 21.7846 674.488 -1 0 -1
244 1 1 0 995.9 22.4032 674.29 -1 0 -1
245 1 1 0 995.738 21.3456 673.818 -1 0 -1
246 1 1 0 995.329 22.2124 673.367 -1 0 -1
247 1 1 0 994.693 22.8673 674.337 -1 0 -1
248 1 1 0 994.868 23.2914 673.289 -1 0 -1
249 1 1 0 994.711 23.5111 672.222 -1 0 -1
250 1 1 0 995.609 23.1841 672.55 -1 0 -1
251 1 1 0 995.816 23.2654 671.582 -1 0 -1
252 1 1 0 995.066 24.3611 671.617 -1 0 -1
253 1 1 -1.67 995.342 24.1715 672.812 -1 0 -1
254 1 1 -1.67 996.18 24.5491 673.268 -1 0 -1
255 1 1 0 996.57 23.5696 673.045 -1 0 -1
256 1 1 0 996.472 22.6446 672.549 -1 0 -1

Velocities

256 5.2554166371856392e-01 2.6328557789987004e+00 4.8168865120522553e-01
255 3.0283030729440275e-01 2.3696659795041958e-02 3.6791296129367579e-01
254 1.6174782282280675e+00 -2.1396381654747136e+00 4.2873303523754824e-01
253 1.4568293533356693e+00 1.1166976590013011e+00 9.8438401071543724e-01
252 1.7210474587732356e+00 1.4826441240415371e+00 -7.1968155415139690e-01
240 -8.9551747807052395e-01 1.3066149732800507e+00 4.9250067151733379e-01
239 -1.0584200646167878e+00 -5.7304035325255964e-01 -9.3854077188976526e-01
238 -1.4239456954974408e+00 8.3063306552257588e-01 1.1046093413050100e+00
237 1.1262828548671071e+00 -1.1722162640010438e+00 8.2170324858386046e-01
236 4.0126833765761361e-01 -8.4453618312390477e-01 1.1457715618323867e+00
235 6.9965739583234476e-01 -4.3374987182637220e-01 -7.3996441720194095e-03
225 4.0445660070690687e-01 8.9125171098304867e-01 -5.4892218881900245e-01
224 -1.1610088137075125e+00 7.1498559142150386e-01 1.0836778196555967e+00
223 -7.2378333451326404e-01 -7.8490018800969608e-01 -1.3841748126978246e+00
222 -9.7534510936638696e-01 -6.1627238144416818e-01 1.6649590403667336e-01
221 -1.3489960242938154e-01 5.9718955548222474e-01 1.0371952801112638e+00
214 -1.1175596515610642e+00 7.0997042738273186e-01 2.1406186291167195e-01
213 -1.3859545322977493e+00 -2.1257461591943190e+00 -2.3065487130275817e+00
102 -8.3975081431743148e-01 4.3565516059577036e-01 1.8632485261574965e+00
209 1.8722624544691031e+00 -6.5023332977632253e-01 -1.7068077393062762e+00
208 5.8611020447556089e-03 2.4012576048890799e-01 3.0186440554144274e+00
212 -7.0050860369132495e-01 8.0043288755858588e-02 1.0958811070236352e+00
207 -7.7394137008549790e-01 7.4543472308575565e-01 8.5470284889892700e-01
211 7.5114543139569012e-01 -5.1736626783433626e-01 -1.9494623684399701e+00
210 -3.5393397456083298e-01 7.9497579439639465e-01 -7.8306014150007797e-01
206 -1.8118951257504923e+00 3.1333961361771889e-01 -1.2161977595717133e+00
205 1.5108182964260981e+00 4.0658273407796630e-01 3.3845898211753112e-01
28 1.5753220782570437e-02 1.4109675923716671e+00 -5.5843334930942179e-01
29 4.1238936460460884e-01 1.6208834794984623e+00 2.7882426685599762e+00
30 1.4345826374900866e-02 1.5207085554923510e+00 -9.4289392163817687e-01
31 1.1462123097801760e+00 3.2787378636005504e-02 -2.3260486996881933e+00
32 -1.9420499943129079e+00 -3.2997964231560473e-01 -2.6464529836352995e+00
33 1.8428162304566142e-01 5.1481789216760676e-01 3.3892634379948955e-01
34 -9.4474011169091465e-01 -8.4679500074164782e-01 1.6284708611183549e+00
35 1.1773928791202000e+00 -8.4366409128019115e-01 1.0480951599710100e+00
36 1.6056947048951200e+00 -6.3446835666742674e-01 -8.1784425431553420e-01
37 1.8421485725055080e+00 9.7655899809745006e-01 5.6653573232616683e-01
38 -9.4461646303928737e-01 -7.1288012582160998e-01 1.7532853510362359e-01
39 3.4182968300690613e+00 1.2340180011813373e+00 1.5011601873200286e-01
40 -1.0628677443568837e-01 -5.0358611795704622e-01 1.3070610313369320e+00
41 1.5342869831445632e-01 8.6652090512913682e-01 -2.3969272942929791e+00
42 -6.5894883765221668e-01 8.2994432646251792e-01 1.8182658420079434e-01
43 -6.1893135593287928e-02 -6.7052267279706701e-01 -6.8389776342640998e-02
44 -4.1978912185645273e-01 7.9975694635167183e-01 2.7234778032267043e-01
45 1.0244567938012095e+00 1.1273402955453732e-01 2.1806305289767196e+00
46 -3.7969177552690653e-01 -1.4242657564364430e-01 -1.0530110114439888e+00
47 -1.4906583912288014e+00 1.2508930508978036e+00 -2.0880205406822894e+00
48 3.1366071714487276e-01 -1.5218364321309650e+00 3.8086267749481556e-01
49 4.0098955807985248e-01 5.2483830482095506e-01 4.7755810358891915e-01
50 1.3619391909476182e+00 3.2651889446758880e-01 -1.2932938230453501e+00
51 -1.1227442265658834e+00 -2.1665004920873704e-01 7.1989345901407920e-01
52 -5.5601416799409242e-01 1.5172620007474294e-01 -1.5299414383152890e-01
53 -5.9937465997426953e-01 -9.0941232124043633e-02 -6.8375361227194204e-02
54 1.9953201621527905e-01 -3.4758112189225021e-01 -1.3956227753905640e-01
55 8.3346125885248501e-01 -6.9989984600144950e-01 -4.8200982184410662e-01
56 -8.4593512316631747e-01 1.8427965113266997e+00 1.2222645504716887e+00
57 -1.1531455865776673e-01 -1.2631688141470425e+00 -4.5708371338471832e-01
58 1.3454290370924973e+00 -3.0918007567025235e-01 1.0603685287522432e-01
59 1.4536445463135252e+00 1.8312553658458448e+00 8.5545092339536810e-01
60 1.9898920472375068e+00 1.3283099049311642e+00 2.4341844783208124e+00
61 4.3628752602157894e-01 -1.1985215374638629e+00 4.2678187318220245e-01
62 1.1014496927287265e+00 8.6595294822371516e-01 -8.8482406652133050e-01
63 -1.1934996069950057e-01 4.3806217098029010e-01 2.6608414515340334e-01
64 -1.3673293769279058e+00 1.4436058713765623e+00 -6.2549029300125192e-01
65 7.4844538642948544e-02 4.3401563559703560e-01 -1.4094786252334703e+00
66 -1.6222719400371579e+00 -4.7968294597021005e-01 -1.2247366494008429e+00
67 2.9331083366858324e-01 1.1001230230103154e+00 -1.1608999205409004e-02
68 -9.2173067993254287e-01 -1.7845768075737278e+00 -6.1392105013340170e-01
69 2.5667327290609337e-01 4.1761606758109249e-01 5.3553643116733429e-01
70 -6.1793924761781960e-01 -1.8748897358627636e+00 1.2730145131580684e+00
71 -9.8552448951356197e-01 -5.3342988092917487e-01 1.2414634203625655e-01
72 1.8177631047283378e+00 -1.6318632904319332e+00 1.1473116467426667e+00
73 8.8241294192582209e-01 3.2154470079745406e-01 -1.1770496404084838e+00
74 6.2264905267310700e-01 -5.9371107249348809e-01 7.6800421757719739e-01
75 1.3991624441637682e+00 -1.5358312271464443e+00 1.2796419662728733e+00
204 -2.6440162591704069e-01 -1.9433646454967171e-01 -1.8575021316280669e+00
220 1.0013853506669554e+00 2.6442765066036746e+00 -1.5476502562307823e+00
219 1.0399466698035871e+00 -9.0066617848480024e-01 2.6424582723559747e-01
218 -9.3104748368016543e-01 -6.8930229842120783e-01 -4.9732408185088839e-01
234 1.7881542646185797e-01 -1.3987341498849692e+00 1.5402591332249831e+00
233 1.0065279052131835e+00 -6.2706759017434310e-01 -1.1281542239529261e+00
232 9.3401663677565361e-02 -1.5017011427758262e+00 -9.2022272225511681e-01
231 5.4156576335433826e-01 3.6239591025904067e-01 -5.0780362452600114e-01
251 9.7081527711734861e-01 4.4056642927314471e-01 6.8049869601021784e-01
250 5.9489696457257535e-01 3.9174136082962130e-01 -1.0671354525507879e+00
249 -6.9746891909147379e-01 -6.7548730035476415e-02 8.7579588314507836e-02
248 -1.0648949033160873e+00 1.2733187293699630e+00 3.9806065188462225e-01
247 9.4845791904845267e-01 -1.7275739560680718e+00 2.6935340203287694e-01
246 9.7500894732524601e-01 2.1339791483076360e+00 -3.5820000725434453e-03
245 -8.4045902386335219e-02 1.5484040500721297e-01 -4.9793664945411603e-01
244 -3.5151622718913478e-02 7.1709853190658701e-01 -2.0543374656302369e+00
243 -7.6547841957918306e-01 -1.6225438209142590e-01 -6.2959481729421685e-01
242 2.1967766971729743e+00 -1.2456841733480084e+00 -7.1127773346462120e-01
241 2.8149491699225454e-01 -1.3148992921095279e+00 1.9990901767136279e-01
230 1.3348049270116000e+00 -7.7187232026351771e-01 -4.3032887506611901e-03
229 -4.4793252545359452e-01 -1.6163572400156864e-01 6.5387031381331528e-01
228 -2.4009126644330898e+00 3.7510980098133484e-01 -1.8852129097726920e+00
227 1.0258819729556456e-01 6.0648774972648412e-01 1.6530875235976339e+00
226 -4.4019674491247368e-01 -7.4097796296879648e-01 -9.7603353977019344e-02
217 1.1867573569401926e+00 -1.2830304353115600e+00 -1.5456859624833830e+00
216 1.4113150942916717e+00 -1.4836329822581447e+00 7.5378713317804980e-01
215 -4.5356562890671509e-01 1.8024213502742972e-01 -8.1852869203388035e-01
103 1.0744991648183617e+00 -7.0403473996509564e-02 1.9438496484655392e+00
104 5.0525413163312127e-01 2.9096868505135071e-01 -1.3306763014204324e+00
105 -1.9238003000299633e+00 9.2826448108219950e-01 7.1289364964637458e-01
106 -2.4585285082786074e-01 -3.3784097627287085e-01 -1.8357688297742756e+00
107 1.2020085336013034e-01 1.1826821300542369e+00 -1.3324669392842730e+00
108 1.2946688180838364e+00 -3.9778491769280117e-01 6.6402400621775992e-01
109 -7.0075775525268480e-01 9.4477878133223259e-01 -7.5745241679346798e-01
110 -1.4815879472722289e+00 1.3598848227732698e+00 2.9783620156757316e+00
111 1.0923670361665470e-01 1.9642831644676897e-01 5.1388877492128859e-01
112 -8.4998823502743992e-01 8.1586001549464582e-01 8.7918849390785636e-01
113 1.0799177840845842e+00 5.8134465819559744e-01 -2.0319751784514617e+00
114 1.8040042581609905e+00 3.1995538886837664e+00 -7.6131819520605415e-01
115 -1.2973544729696795e+00 -4.8457171802286841e-01 4.4048035835269206e-01
116 -4.0944288600601247e-01 6.7035189192943589e-01 2.0163767325576214e+00
117 -2.1091393485790794e-01 8.9535890651221617e-01 -1.7652165518374350e+00
118 1.2903236742838595e+00 -1.2512085067438750e+00 -1.5719525042524607e-01
119 3.0860781889654676e-01 2.1785456973889838e-04 -3.2474061366835072e-01
120 1.5534824893661463e+00 -1.1231211306841957e+00 1.7467678651197813e+00
121 2.2303568339416999e-01 2.0053103493968623e+00 4.4161987118236051e-01
122 3.8156344976099754e-01 6.2388020503046615e-01 -7.6028044420060403e-01
123 -1.8766750071915805e-01 5.7021058315968454e-01 -6.6009735984228191e-01
124 -8.9100030570674904e-01 1.0584831491597091e+00 6.9267289323795156e-01
125 -6.2259384262503403e-01 8.4538498282420615e-01 -3.2260232329833366e-01
126 -5.3103934262968955e-01 -1.2336662439074531e+00 -2.3719875855097261e-01
127 -6.8551544227255146e-01 1.8312941072069369e-01 -1.5666385192987964e+00
128 -5.7867463731025182e-01 4.1968180003698791e-01 2.0998409182417233e-01
129 -8.4995496521361014e-01 1.3942188659478663e+00 -2.8309504856386525e+00
130 9.6557843287145306e-01 1.2222840817531517e+00 -7.6995912463872795e-01
131 -1.0229705573585595e+00 1.2545278743174937e+00 -9.6322447891030449e-02
132 2.9349554434859348e-01 -1.4004039815361600e+00 -6.0415668786797028e-01
133 -3.3197723223152004e-01 4.6896752206639908e-01 -4.2856665234215691e-02
134 8.9738443654289249e-02 -1.8871627093701740e-01 -1.2441845021088764e+00
135 -9.7579834216476258e-01 -2.5510100824956344e-01 8.2009547765528779e-01
136 -1.9271233861161566e-01 -1.6751597136714855e-02 5.7899366527859175e-01
137 -5.5444100357014214e-01 -1.2001475525292857e+00 -1.2040836382929772e+00
138 -8.5865969176309365e-01 -2.2712208435091374e-01 9.8288417831671804e-01
139 -8.9360898996383664e-01 -2.3270865565104287e-01 -6.3386913747201235e-03
140 -1.8665391121807037e-01 -8.1101115044935124e-01 -7.2223468560631776e-01
141 -4.5822916267821673e-01 -1.0899215554762702e+00 7.1739963816466534e-01
142 5.2115967214032455e-01 1.3769267775155265e+00 -3.2143894778954429e-01
143 2.2747691832280590e+00 -3.5336144354273213e-01 -9.5397940188813105e-02
144 -1.4390107197029695e-01 2.1060435200587837e+00 -8.7878671108643924e-01
145 -1.1639794429958591e-01 -1.2610410999307042e+00 5.0228445694718987e-03
146 -2.2485944532851151e-01 7.2491246497364181e-01 -2.6693018228011445e+00
147 -2.5589830163959539e+00 2.6186183746017284e+00 -7.1029526821095451e-02
148 -5.6040532104003482e-01 -1.3877932164602145e+00 -5.2189074126225432e-01
149 1.0404882421913404e+00 4.8501530054018366e-01 2.0330170593832304e+00
150 -6.5010364124181064e-01 -1.7354303565601064e+00 3.1748303385644860e-01
151 2.1606246000139950e-01 -1.3392114122104721e+00 -1.7885842565589116e+00
152 -1.0466826495935344e+00 -6.9443504148402568e-01 -1.7839550808242099e+00
153 -6.2848624225571725e-01 3.2088567270593837e-01 1.5174877570596976e+00
154 -7.8061125289533329e-01 4.5845279547274220e-01 -1.2520529194843122e+00
155 -9.2757061372397503e-02 -3.3575042039761138e-01 3.6414832483340454e-01
156 7.6746318290136095e-01 9.6868879294119381e-01 5.2634243711572370e-01
157 1.0265209100673063e+00 2.2002228196580189e+00 -7.1045172911645332e-02
158 -1.4803906816607240e-01 -6.0342439942925541e-01 1.9595529038482569e+00
159 1.6479542248434420e+00 -1.0438553669375301e+00 2.0631576818339452e+00
160 -4.4762941828897579e-01 1.8913523254535742e+00 -5.9326616826436562e-01
161 4.1629734110471489e-01 3.4053680411315645e-01 -4.2906331841110734e-01
162 -3.5501893393828049e-01 1.4764279447517514e-01 2.4727609107940790e-01
163 4.3569237548593437e-01 -6.8613646553103469e-01 7.0122256398031835e-01
164 7.9328855033105872e-01 1.0975420852739430e+00 7.3658328854509802e-01
165 -4.2630746468937214e-01 -8.9605886905838172e-01 -4.3080383331195404e-01
166 -4.1886426054389070e-01 1.1298631220300968e+00 -2.1377566080075441e-01
167 7.0616087090090152e-01 -3.9207262782677710e-01 9.0109719019583301e-01
168 -1.4215400285032020e+00 -7.2291112834014937e-01 -5.4866794062075996e-01
169 -1.3436845516186688e-01 -4.2228210820123624e-02 -5.4034067048647494e-01
170 3.0791275507166149e-01 -7.5816283040098154e-01 8.9533503307395360e-02
171 6.3080002398970270e-01 1.7117584252672611e+00 1.0752187947325473e+00
172 8.5667816418912690e-01 7.4819444200876428e-01 6.5394868624694305e-02
173 -1.3105302041362057e+00 5.5756536936492329e-01 -8.5627490190905542e-01
174 -1.3752781268181352e-01 1.1076888742375588e+00 -2.1646417084696346e-01
175 4.0917029559080942e-01 -3.1237686934780551e-01 1.2339508280249968e-01
176 1.4318096226070404e-01 5.7818916996225067e-01 -2.8526836388490784e-01
177 -3.7092637520162886e-01 1.1962806927745789e-01 -1.1336831331947312e+00
178 9.3491958791868301e-01 2.4986628593116826e+00 3.0856959834543235e-01
179 -2.9113679613154236e-01 -4.4129678803455813e-01 2.9378962054282376e-01
180 3.0294608112307020e-01 6.4787045775290680e-02 -1.5230546294127982e+00
181 -1.4273746701956760e+00 7.3460653501761142e-01 4.6883714766940282e-01
182 -2.0197628258644098e+00 -1.2929803855728845e+00 1.2249300845082989e+00
183 -2.0704814021210005e-01 -7.3756108378446164e-02 1.4177698191153867e+00
184 -1.3284878603011654e+00 1.8784995905411213e+00 -2.2171812913196112e-01
185 -2.3101136208020298e-01 -8.7327100873356212e-01 1.0186324559882012e-02
186 6.5151544915690285e-01 2.7371091140917625e-01 7.9421409917067753e-01
187 -6.6857051349870333e-01 -7.7613812261885573e-01 -3.1448717076603107e-02
188 -7.4940627550230743e-01 4.1643001182129935e-01 -1.8896016487634715e+00
189 -1.3152672974654460e+00 -1.0496809507187295e+00 6.8777838284087911e-01
190 5.9181777100815980e-01 -9.4677984220318545e-01 5.5640002694887503e-02
191 -9.9605670780828867e-02 -1.2231187490646283e+00 1.3999053678627151e+00
192 3.9483222028139975e-01 -8.0727719150605759e-01 5.0724063010010600e-01
193 -1.3113308223079603e+00 -9.8468314954599911e-01 9.0197337042057990e-01
194 -5.9069555253566031e-01 5.2507030796751819e-01 7.0008817907489407e-01
195 -4.2507116654603250e-01 -1.8306171587494244e-02 -1.4299085390285042e+00
196 -6.0176315087333343e-01 -1.5328273264873155e-01 7.9073755072592333e-01
197 1.3868562175501453e+00 4.8510801545995047e-01 5.9135032712794877e-01
198 6.3255447177511981e-01 -2.4671364453148045e-02 8.7662588827532237e-02
199 -8.6626716373446933e-01 1.4919323455476347e-01 -6.1373421816972695e-01
200 1.8448832337159510e-01 6.4150894794825031e-01 -8.5074404791539571e-01
201 -1.2011937372357244e-01 4.3101350238518382e-01 -1.4403522171601837e+00
202 -4.5060019226350789e-01 1.3084962474687134e+00 -2.1716138313806102e-01
203 1.9336237377536090e+00 -1.1340120622413903e+00 1.0264416762977813e+00
101 -4.6920476513975917e-01 -1.0415324790957734e+00 1.3223358096390680e+00
76 6.3652138991530594e-01 -1.7210929549351734e+00 -4.8891983605463563e-01
77 -1.6349932068377268e-01 -4.2457799748624120e-01 -2.0402248541839085e-01
78 1.8776343738352836e+00 -5.8743935195010222e-01 2.1517526863379772e+00
79 4.5134557485442456e-02 8.0889733280654841e-01 -3.6007013998305865e-01
89 1.4751138437307547e+00 -2.3802748072895014e-01 1.2163286748508204e+00
86 -1.0652569427146046e+00 6.0274517190930121e-01 -4.4099744874235358e-01
90 4.9957297999787015e-01 7.9707287930157311e-01 6.7184870915122052e-01
88 1.6930355726725507e-02 -3.9189711466496380e-01 -2.4061926436414383e-01
91 -2.5254926679115965e+00 -2.0379736758063474e-01 -2.7548112708399525e-01
92 -3.1044049836350007e-01 -6.5978980106906149e-01 -1.5776131379979683e+00
93 -7.5083684307521792e-01 1.0785808586078180e+00 -1.9792510910188810e+00
94 -1.9979795131675644e-02 -6.7967928545261880e-01 7.0200758859048562e-01
95 -9.6647195274000397e-01 -1.8561893364672785e-01 -1.7898544550411937e-02
83 1.5040277714723784e+00 6.8324662272928760e-01 3.6315594065233703e-01
84 2.3351091953196434e-01 1.8662788971952458e+00 -8.9386494430250207e-01
96 -1.3564012914754762e+00 -2.1441903244257690e-01 1.5591946026326349e+00
80 2.0444952502580440e+00 2.7909405130958581e-01 -1.7681690763641780e+00
87 2.3821821518001420e+00 -2.1980090094154292e+00 1.3628136002560263e+00
85 -1.3945877135760607e+00 -1.0234967281969216e+00 3.8825342688250558e-01
81 6.7521914510773129e-01 2.0422520551083675e-01 2.7161995778666745e+00
82 6.5984113994042370e-01 6.4823844502365713e-01 -3.8353537268803783e-01
100 2.2135513086594201e+00 -1.0547179651778402e+00 -4.9830633790192569e-01
98 5.4709101416493744e-01 -1.8874543978070339e+00 -1.3268195065268871e+00
99 -1.0249801684013560e+00 1.9733588727101443e+00 7.2936761956705842e-01
97 1.9526203808570908e+00 3.3604475496502456e-01 1.5901907557919572e+00
1 3.1527502056705198e-01 1.7214382653437938e+00 2.0092985964486303e+00
2 -6.0351544966901605e-01 -7.1049569008784053e-01 -8.6134456027257694e-03
3 7.8486038308351502e-01 2.4281167146693347e-01 9.2378061512822252e-01
4 -1.3939375125661608e+00 7.3259508035660392e-01 -8.3055645896103336e-01
5 -5.3996438587315365e-01 -5.2946423636231577e-01 4.0399350145967144e-01
6 6.0620081261525660e-01 -5.4790887307250347e-01 -2.4873607381043039e-01
7 -7.9414881479626387e-01 1.7440283256073572e-01 4.2672436611243131e-01
8 4.7374647571982481e-01 9.2764103060136693e-01 -2.9449145493818363e-01
9 -5.8616599635362684e-02 -6.6371321462449118e-01 -1.5776751126919739e+00
10 6.6008944619847965e-01 7.4124735040837519e-01 3.3754358317188793e-01
11 4.9236486472888674e-01 -3.4236393261847636e-01 -3.7039537245006410e-01
12 5.7485801486365218e-01 -1.6049343205568949e+00 -2.3189930846794904e-01
13 6.0745782383695845e-01 -6.9550991739280221e-01 -5.4913686798441164e-01
14 -1.0199663719714938e+00 8.4530261251770822e-01 1.3854512333787339e+00
15 2.1513822629077833e-01 -1.7978418112682754e-01 -2.0689265506028626e-01
18 -3.0374241171193750e-01 9.9604129780963391e-02 -4.6525017568206678e-01
19 -1.6087016814459971e+00 1.2642815326355874e+00 7.0450842472389930e-01
16 5.4256371358864830e-01 -1.7950063887063094e-03 -4.1770389274535635e-01
17 -6.5362638086221470e-01 3.0213408637157413e-01 -3.3883387001190624e-01
20 -4.3535419750926407e-01 -4.9123213180387115e-01 1.3496220792070877e+00
21 3.7699864931899976e+00 5.0547728918607138e-01 3.0149292603446098e-01
22 -8.1933884611664398e-01 -9.2183773824820903e-01 -2.5220307110936124e-01
23 1.1317184178735120e+00 1.0587529757573277e+00 1.1804140870281938e+00
24 -4.3283331395819946e-01 1.0838618529653137e+00 -5.4881437188903370e-03
25 -1.3049538311192683e+00 1.1443410079540848e+00 -2.0500638296388951e+00
26 8.4734223039966694e-01 -1.1971028878572147e+00 5.6908888420779913e-01
27 -1.0783445343866092e+00 -4.5822250080086835e-01 1.5036822485780617e+00

Bonds
