ITEM: TIMESTEP
50000
ITEM: NUMBER OF ATOMS
256
ITEM: BOX BOUNDS mm mm mm
-500 500
-500 500
-500 500
ITEM: ATOMS id type xs ys zs
49 1 0.501068 0.500692 0.49983
46 1 0.500676 0.501843 0.499542
70 1 0.499585 0.500617 0.500368
68 1 0.501348 0.499616 0.499848
69 1 0.501035 0.500236 0.500166
71 1 0.49923 0.500523 0.499567
83 1 0.499662 0.498757 0.498601
82 1 0.499624 0.499352 0.498996
74 1 0.498829 0.501309 0.499472
54 1 0.501491 0.498922 0.499807
72 1 0.499467 0.500783 0.499247
73 1 0.499243 0.501378 0.499658
65 1 0.501478 0.499215 0.500223
64 1 0.501668 0.49964 0.50036
15 1 0.49996 0.501566 0.498617
16 1 0.500645 0.501422 0.499374
44 1 0.500622 0.500941 0.49898
47 1 0.501189 0.501841 0.499513
67 1 0.500163 0.499341 0.498856
66 1 0.500751 0.499737 0.499449
45 1 0.499988 0.50163 0.499063
53 1 0.501274 0.498413 0.499709
17 1 0.500051 0.5013 0.499459
120 1 0.500298 0.499645 0.499385
122 1 0.499777 0.500254 0.498459
75 1 0.499173 0.501546 0.500147
84 1 0.501064 0.49951 0.499189
88 1 0.49903 0.503051 0.499514
12 1 0.500474 0.500517 0.499102
13 1 0.500407 0.501225 0.49847
14 1 0.500544 0.502057 0.49878
42 1 0.500585 0.500149 0.498789
43 1 0.500275 0.500284 0.498388
89 1 0.498742 0.502159 0.499703
63 1 0.500656 0.499626 0.500372
90 1 0.498459 0.501623 0.499364
8 1 0.500217 0.50123 0.499013
78 1 0.49972 0.50119 0.49916
4 1 0.500031 0.499962 0.498208
93 1 0.498312 0.500871 0.50018
9 1 0.499855 0.501134 0.49873
55 1 0.501065 0.499244 0.498779
38 1 0.500147 0.50076 0.498881
7 1 0.499693 0.500765 0.498023
76 1 0.499586 0.501031 0.500554
85 1 0.501005 0.500548 0.499349
61 1 0.499888 0.499679 0.499157
48 1 0.50135 0.501525 0.499838
11 1 0.499831 0.499207 0.49854
87 1 0.500014 0.501801 0.499525
52 1 0.500928 0.498119 0.499486
62 1 0.499591 0.499432 0.499458
77 1 0.499604 0.501096 0.499591
80 1 0.498332 0.499582 0.498995
50 1 0.501032 0.500095 0.498863
59 1 0.500857 0.499186 0.500079
51 1 0.501406 0.498996 0.498983
99 1 0.500824 0.498477 0.49978
26 1 0.500037 0.500162 0.500103
34 1 0.499105 0.499358 0.498709
81 1 0.498799 0.499993 0.499603
96 1 0.499813 0.499815 0.500466
79 1 0.498831 0.500375 0.499363
24 1 0.499859 0.499892 0.499707
19 1 0.500463 0.500752 0.498545
37 1 0.500079 0.500299 0.498828
40 1 0.500524 0.500078 0.499246
25 1 0.500235 0.499712 0.500155
32 1 0.500599 0.499235 0.49865
36 1 0.499694 0.500538 0.498906
39 1 0.500045 0.50058 0.499313
41 1 0.500601 0.499479 0.49906
18 1 0.500397 0.501616 0.498843
30 1 0.500988 0.501002 0.499468
31 1 0.500834 0.500177 0.49961
35 1 0.49931 0.500262 0.498731
27 1 0.500537 0.500111 0.500179
23 1 0.500066 0.500117 0.499256
20 1 0.501008 0.499974 0.498361
21 1 0.500644 0.500046 0.49798
29 1 0.501023 0.500706 0.498452
3 1 0.500418 0.499799 0.498461
5 1 0.499282 0.500545 0.498352
6 1 0.499496 0.500323 0.498011
2 1 0.500801 0.499099 0.49921
22 1 0.499707 0.500082 0.499001
58 1 0.50188 0.499323 0.49945
60 1 0.500426 0.499224 0.499501
57 1 0.501588 0.498697 0.499418
98 1 0.501052 0.499549 0.500678
56 1 0.501515 0.498667 0.5002
28 1 0.500907 0.500565 0.498904
92 1 0.498986 0.501765 0.499712
91 1 0.498495 0.501949 0.500395
86 1 0.500617 0.500796 0.499717
95 1 0.500476 0.500546 0.500338
33 1 0.499495 0.499856 0.498644
100 1 0.500041 0.498982 0.50001
97 1 0.499948 0.499357 0.500366
94 1 0.49961 0.500837 0.499941
101 1 0.500066 0.49884 0.499439
102 1 0.500004 0.499265 0.499313
103 1 0.500951 0.49929 0.499626
104 1 0.50153 0.499646 0.499415
157 1 0.501825 0.499437 0.499934
158 1 0.501285 0.499899 0.500395
108 1 0.499647 0.500353 0.499363
105 1 0.501189 0.499686 0.498677
106 1 0.500901 0.499506 0.498393
107 1 0.500418 0.500413 0.499557
111 1 0.499154 0.499366 0.499768
113 1 0.499931 0.500432 0.499741
117 1 0.500552 0.499706 0.501116
110 1 0.499287 0.499896 0.499079
112 1 0.499473 0.499641 0.50002
130 1 0.499352 0.499629 0.500467
131 1 0.498829 0.499079 0.499892
135 1 0.49926 0.499796 0.499553
127 1 0.498977 0.50035 0.501206
159 1 0.500888 0.498941 0.500477
160 1 0.501192 0.498877 0.50083
185 1 0.498772 0.498815 0.500287
161 1 0.500594 0.499415 0.500779
186 1 0.498382 0.499599 0.50016
153 1 0.501947 0.498814 0.499148
149 1 0.501424 0.50072 0.499542
116 1 0.500375 0.500275 0.501364
121 1 0.500266 0.499349 0.498378
138 1 0.4994 0.498984 0.499428
114 1 0.500596 0.500803 0.500726
115 1 0.500866 0.500421 0.500583
118 1 0.500602 0.4995 0.499836
137 1 0.499897 0.498955 0.498974
145 1 0.500844 0.500841 0.500242
152 1 0.501916 0.499284 0.498974
151 1 0.50147 0.499448 0.498943
136 1 0.499535 0.498646 0.499041
146 1 0.501005 0.50129 0.500097
148 1 0.501844 0.500939 0.499693
150 1 0.50146 0.500079 0.498993
169 1 0.499117 0.499318 0.500202
187 1 0.498956 0.500322 0.500301
165 1 0.500439 0.499956 0.499767
170 1 0.499036 0.499452 0.501339
171 1 0.498601 0.50012 0.500524
184 1 0.499005 0.499502 0.500739
143 1 0.499803 0.501501 0.499891
190 1 0.498924 0.501245 0.500483
154 1 0.502705 0.49991 0.499589
191 1 0.499227 0.501243 0.499219
188 1 0.499169 0.500767 0.500511
140 1 0.499955 0.499676 0.498601
197 1 0.499726 0.499242 0.501193
201 1 0.499709 0.499485 0.500784
205 1 0.498818 0.500388 0.499844
202 1 0.500268 0.49987 0.500594
206 1 0.498129 0.500258 0.500669
207 1 0.498503 0.500457 0.500203
208 1 0.499506 0.500651 0.500836
214 1 0.499938 0.498778 0.501928
196 1 0.499508 0.49919 0.500425
200 1 0.500185 0.499135 0.500704
204 1 0.499378 0.500195 0.500284
199 1 0.500165 0.499501 0.500954
211 1 0.500211 0.500013 0.501027
212 1 0.499825 0.500546 0.50118
213 1 0.500124 0.498969 0.501151
215 1 0.49994 0.499286 0.501928
144 1 0.499253 0.50147 0.500736
209 1 0.498983 0.499978 0.500921
198 1 0.499393 0.498774 0.50063
210 1 0.499698 0.500642 0.501629
119 1 0.50036 0.499022 0.499098
125 1 0.499859 0.501392 0.501444
132 1 0.499266 0.498891 0.500199
164 1 0.499489 0.500253 0.499836
124 1 0.499074 0.500963 0.499735
162 1 0.500397 0.499259 0.500224
189 1 0.498788 0.500806 0.500073
133 1 0.499022 0.499025 0.500606
147 1 0.500349 0.500997 0.500303
167 1 0.500207 0.500534 0.500866
181 1 0.498526 0.499497 0.500718
128 1 0.499235 0.5003 0.500738
166 1 0.500871 0.499866 0.499956
163 1 0.500112 0.499415 0.499797
129 1 0.499752 0.499704 0.501192
134 1 0.498688 0.499275 0.500315
176 1 0.498805 0.500485 0.50078
178 1 0.498476 0.501126 0.499723
182 1 0.498204 0.499813 0.500562
183 1 0.499335 0.499213 0.500902
141 1 0.500271 0.499804 0.498912
175 1 0.499118 0.499971 0.499954
180 1 0.498795 0.499714 0.500396
203 1 0.499679 0.499245 0.499868
126 1 0.499621 0.500971 0.501329
179 1 0.498839 0.501276 0.499961
172 1 0.498633 0.500008 0.500076
174 1 0.498827 0.499756 0.499185
177 1 0.49923 0.500588 0.500029
173 1 0.498153 0.500128 0.500191
109 1 0.499443 0.500884 0.498657
156 1 0.502143 0.499435 0.500292
123 1 0.500021 0.500911 0.499711
139 1 0.499187 0.499479 0.499225
195 1 0.498801 0.499598 0.49994
192 1 0.499662 0.501531 0.499446
194 1 0.49841 0.499763 0.499732
217 1 0.500652 0.499316 0.502224
216 1 0.499862 0.499734 0.502793
142 1 0.500341 0.500925 0.499363
193 1 0.499237 0.501061 0.500148
168 1 0.500034 0.500658 0.500123
1 1 0.49997 0.49886 0.498273
219 1 0.500197 0.499003 0.501597
218 1 0.499532 0.499401 0.50209
155 1 0.502517 0.499501 0.500576
10 1 0.499832 0.500717 0.498468
239 1 0.499183 0.498564 0.501922
251 1 0.500298 0.498834 0.50036
240 1 0.499787 0.49884 0.501487
232 1 0.498632 0.500721 0.501465
222 1 0.499124 0.499352 0.501808
245 1 0.500199 0.498425 0.501949
246 1 0.499221 0.498973 0.502249
233 1 0.498874 0.501336 0.501436
223 1 0.499452 0.500172 0.501512
243 1 0.499672 0.499538 0.501623
250 1 0.500906 0.499174 0.501064
220 1 0.500297 0.49901 0.502099
224 1 0.500079 0.499438 0.501427
225 1 0.500496 0.499252 0.501295
252 1 0.499532 0.500121 0.501065
234 1 0.500041 0.501046 0.501125
221 1 0.499096 0.499906 0.501376
248 1 0.49988 0.498568 0.501001
249 1 0.500529 0.498887 0.500905
227 1 0.502042 0.499141 0.500631
226 1 0.501599 0.498895 0.500583
230 1 0.499315 0.499692 0.501007
228 1 0.500602 0.498551 0.500589
229 1 0.49976 0.499018 0.500776
231 1 0.499364 0.500576 0.501297
247 1 0.499713 0.498351 0.502112
238 1 0.49909 0.498599 0.50129
237 1 0.500557 0.499282 0.501786
244 1 0.499478 0.498791 0.501119
236 1 0.500507 0.499786 0.501667
242 1 0.499813 0.498361 0.501662
241 1 0.500221 0.498586 0.501398
254 1 0.499806 0.500308 0.500712
255 1 0.499997 0.500827 0.500555
253 1 0.499931 0.500066 0.501454
256 1 0.500411 0.501248 0.499749
235 1 0.500509 0.500727 0.501201
ITEM: TIMESTEP
100000
ITEM: NUMBER OF ATOMS
256
ITEM: BOX BOUNDS mm mm mm
-500 500
-500 500
-500 500
ITEM: ATOMS id type xs ys zs
49 1 0.501581 0.498928 0.49856
46 1 0.500868 0.498639 0.500113
70 1 0.499487 0.498512 0.499232
68 1 0.499877 0.498739 0.499809
69 1 0.499203 0.498453 0.499588
71 1 0.500181 0.498972 0.499573
83 1 0.49964 0.500269 0.500895
82 1 0.500087 0.500235 0.500699
74 1 0.500198 0.500998 0.500648
54 1 0.500685 0.499566 0.499934
72 1 0.500905 0.499144 0.499905
73 1 0.501089 0.500614 0.500718
65 1 0.499677 0.499753 0.500781
64 1 0.499425 0.499403 0.500058
15 1 0.500068 0.500646 0.498379
16 1 0.49934 0.500962 0.499178
44 1 0.500944 0.49787 0.499863
47 1 0.501217 0.498267 0.499988
67 1 0.499625 0.498384 0.500998
66 1 0.499726 0.498826 0.501094
45 1 0.500629 0.498222 0.499576
53 1 0.49987 0.499344 0.499451
17 1 0.500065 0.501026 0.499824
120 1 0.499946 0.497988 0.499256
122 1 0.500432 0.498649 0.499358
75 1 0.500789 0.500834 0.500334
84 1 0.499676 0.501057 0.500621
88 1 0.499399 0.498695 0.499942
12 1 0.501167 0.500728 0.49906
13 1 0.501095 0.500776 0.498609
14 1 0.500663 0.500942 0.498468
42 1 0.500312 0.499359 0.499282
43 1 0.501621 0.49843 0.499565
89 1 0.500405 0.498378 0.500145
63 1 0.500315 0.49938 0.500497
90 1 0.500196 0.498824 0.500158
8 1 0.500284 0.4989 0.500858
78 1 0.500384 0.500937 0.500163
4 1 0.498459 0.499889 0.500693
93 1 0.499829 0.500631 0.499144
9 1 0.499775 0.499695 0.500209
55 1 0.50067 0.499053 0.499436
38 1 0.499699 0.500262 0.49888
7 1 0.49951 0.498899 0.500362
76 1 0.501204 0.500551 0.500236
85 1 0.499709 0.501013 0.501575
61 1 0.499899 0.49868 0.500508
48 1 0.501673 0.498344 0.499115
11 1 0.501577 0.501082 0.499792
87 1 0.49941 0.499326 0.499582
52 1 0.500611 0.499023 0.500275
62 1 0.499933 0.499115 0.500408
77 1 0.500448 0.500829 0.49969
80 1 0.499349 0.499747 0.500365
50 1 0.501322 0.499283 0.498752
59 1 0.50122 0.499597 0.500603
51 1 0.501311 0.498593 0.499273
99 1 0.499391 0.499969 0.498479
26 1 0.499604 0.499828 0.499036
34 1 0.498002 0.500435 0.498938
81 1 0.499897 0.500667 0.500829
96 1 0.499196 0.499649 0.499335
79 1 0.500221 0.500589 0.500442
24 1 0.499969 0.501151 0.498157
19 1 0.501053 0.50032 0.498742
37 1 0.500037 0.499993 0.498239
40 1 0.499669 0.500491 0.500175
25 1 0.500317 0.500271 0.498461
32 1 0.499761 0.500382 0.499721
36 1 0.499553 0.500693 0.498783
39 1 0.498853 0.500607 0.500061
41 1 0.50024 0.49964 0.500133
18 1 0.500663 0.500625 0.498794
30 1 0.500768 0.500786 0.499356
31 1 0.500047 0.499743 0.499218
35 1 0.498777 0.500338 0.499076
27 1 0.500301 0.499761 0.499647
23 1 0.500857 0.50002 0.498401
20 1 0.500836 0.49969 0.498764
21 1 0.501257 0.50025 0.499382
29 1 0.500541 0.500512 0.500054
3 1 0.498308 0.50033 0.500602
5 1 0.499212 0.499585 0.500808
6 1 0.499559 0.499365 0.500509
2 1 0.498256 0.499389 0.500339
22 1 0.50082 0.500355 0.499187
58 1 0.500831 0.499134 0.50071
60 1 0.500913 0.499388 0.50031
57 1 0.501073 0.498646 0.500527
98 1 0.499037 0.500187 0.498714
56 1 0.501534 0.498895 0.499605
28 1 0.500683 0.500365 0.499632
92 1 0.500131 0.500041 0.498846
91 1 0.500513 0.500071 0.499307
86 1 0.499984 0.500128 0.500062
95 1 0.499866 0.499875 0.499715
33 1 0.499065 0.500843 0.499724
100 1 0.501098 0.499481 0.499123
97 1 0.4995 0.499383 0.499062
94 1 0.500226 0.500232 0.499634
101 1 0.50113 0.499596 0.499587
102 1 0.501246 0.500745 0.499528
103 1 0.500945 0.501177 0.499554
104 1 0.501223 0.501009 0.500113
157 1 0.49993 0.501452 0.499712
158 1 0.499664 0.501218 0.499409
108 1 0.499514 0.501184 0.500219
105 1 0.500888 0.500745 0.499853
106 1 0.500116 0.50058 0.49995
107 1 0.499916 0.500876 0.500227
111 1 0.500956 0.501571 0.500642
113 1 0.500451 0.50044 0.501342
117 1 0.500534 0.49882 0.499841
110 1 0.501439 0.501456 0.500072
112 1 0.500616 0.500961 0.500805
130 1 0.500933 0.500236 0.500002
131 1 0.500832 0.49992 0.499665
135 1 0.500401 0.49932 0.498796
127 1 0.500355 0.500508 0.499277
159 1 0.499706 0.500353 0.498367
160 1 0.498437 0.500676 0.49905
185 1 0.498384 0.50026 0.499687
161 1 0.498764 0.501234 0.499152
186 1 0.498903 0.499739 0.498941
153 1 0.498867 0.500794 0.499277
149 1 0.499273 0.501625 0.501757
116 1 0.500487 0.50002 0.499989
121 1 0.500081 0.498065 0.500062
138 1 0.501077 0.499953 0.499082
114 1 0.500819 0.500324 0.500433
115 1 0.500578 0.499908 0.501027
118 1 0.500196 0.499753 0.500758
137 1 0.500838 0.49919 0.498705
145 1 0.500383 0.500561 0.50089
152 1 0.499022 0.501271 0.499964
151 1 0.499189 0.501253 0.499517
136 1 0.500628 0.500125 0.498829
146 1 0.501372 0.500694 0.501138
148 1 0.499686 0.501137 0.501139
150 1 0.499104 0.501225 0.500497
169 1 0.499705 0.500717 0.501966
187 1 0.498821 0.499141 0.498446
165 1 0.499432 0.501496 0.499824
170 1 0.499525 0.49942 0.501892
171 1 0.499506 0.500716 0.501047
184 1 0.498096 0.500968 0.498923
143 1 0.501442 0.500211 0.500898
190 1 0.499254 0.497668 0.499759
154 1 0.49986 0.501734 0.500094
191 1 0.498746 0.498842 0.499541
188 1 0.499009 0.498675 0.499171
140 1 0.501258 0.498929 0.500173
197 1 0.498447 0.500255 0.501468
201 1 0.499462 0.500556 0.500589
205 1 0.499152 0.500433 0.50129
202 1 0.498623 0.499951 0.500194
206 1 0.49925 0.500019 0.500698
207 1 0.499264 0.500802 0.500187
208 1 0.499428 0.501861 0.500581
214 1 0.500821 0.500156 0.501415
196 1 0.498897 0.499754 0.500528
200 1 0.498918 0.499907 0.500992
204 1 0.499054 0.500542 0.500828
199 1 0.499153 0.499888 0.501419
211 1 0.500369 0.501241 0.501615
212 1 0.500751 0.501063 0.502397
213 1 0.500431 0.500702 0.502325
215 1 0.500546 0.50025 0.501796
144 1 0.500954 0.5 0.500731
209 1 0.49929 0.501596 0.50024
198 1 0.498887 0.500362 0.501689
210 1 0.499797 0.501868 0.501096
119 1 0.499942 0.498624 0.49932
125 1 0.500217 0.498919 0.499058
132 1 0.501443 0.499771 0.498892
164 1 0.498703 0.501177 0.499665
124 1 0.501047 0.497494 0.498917
162 1 0.498376 0.501023 0.499377
189 1 0.499023 0.498727 0.500191
133 1 0.502464 0.499983 0.498353
147 1 0.500781 0.500358 0.500981
167 1 0.500416 0.501311 0.501094
181 1 0.499237 0.500054 0.499613
128 1 0.500152 0.500529 0.498834
166 1 0.500061 0.501709 0.500736
163 1 0.498575 0.501308 0.50013
129 1 0.499864 0.499737 0.498592
134 1 0.501369 0.499782 0.498058
176 1 0.498548 0.499361 0.501066
178 1 0.498383 0.499287 0.499912
182 1 0.49929 0.500447 0.499856
183 1 0.498614 0.500704 0.499648
141 1 0.50125 0.499253 0.500957
175 1 0.498003 0.500032 0.500791
180 1 0.499193 0.500531 0.499024
203 1 0.498583 0.500654 0.500843
126 1 0.499965 0.499371 0.498946
179 1 0.499619 0.500853 0.499874
172 1 0.500658 0.500891 0.501444
174 1 0.499411 0.500427 0.501724
177 1 0.498613 0.49903 0.500226
173 1 0.499755 0.500249 0.501967
109 1 0.50034 0.50139 0.500023
156 1 0.500776 0.501157 0.499995
123 1 0.500519 0.498614 0.498898
139 1 0.501098 0.498216 0.499542
195 1 0.498705 0.499312 0.500605
192 1 0.499224 0.498915 0.499545
194 1 0.498731 0.499492 0.500169
217 1 0.500022 0.500318 0.501211
142 1 0.501316 0.499721 0.501044
193 1 0.499019 0.499146 0.499993
168 1 0.500668 0.500977 0.501907
219 1 0.499489 0.500046 0.500006
218 1 0.499676 0.5001 0.500455
155 1 0.500014 0.501457 0.501322
10 1 0.501216 0.499884 0.499957
239 1 0.500876 0.49985 0.500262
251 1 0.500411 0.499797 0.498557
240 1 0.501716 0.498981 0.500026
232 1 0.498834 0.49997 0.499395
222 1 0.499613 0.499214 0.50143
245 1 0.498655 0.499709 0.499799
246 1 0.499508 0.500389 0.499336
233 1 0.498861 0.500172 0.499831
223 1 0.499475 0.499598 0.501192
243 1 0.499958 0.500206 0.499239
250 1 0.499748 0.499011 0.499146
220 1 0.499138 0.499749 0.499957
224 1 0.499599 0.500036 0.501535
225 1 0.499831 0.499654 0.501581
252 1 0.501309 0.499059 0.499205
234 1 0.498795 0.500207 0.500646
221 1 0.499117 0.499346 0.500395
248 1 0.500453 0.499746 0.499003
249 1 0.499199 0.500085 0.499153
227 1 0.500447 0.499393 0.500954
226 1 0.500373 0.499905 0.501457
230 1 0.498522 0.49961 0.498473
228 1 0.499933 0.49981 0.501157
229 1 0.499053 0.500127 0.500257
231 1 0.4982 0.499724 0.500005
247 1 0.500172 0.500945 0.499271
238 1 0.500471 0.499986 0.50046
237 1 0.500188 0.500803 0.50125
244 1 0.499033 0.50043 0.499473
236 1 0.500198 0.500906 0.501956
242 1 0.500318 0.499248 0.499917
241 1 0.501491 0.499351 0.499859
254 1 0.501656 0.499418 0.499119
255 1 0.501718 0.499494 0.498617
253 1 0.501164 0.498644 0.499701
256 1 0.502003 0.499919 0.498513
235 1 0.4993 0.500826 0.501463
216 1 0.49998 0.500516 0.501621
1 1 0.498174 0.500769 0.500642
ITEM: TIMESTEP
150000
ITEM: NUMBER OF ATOMS
256
ITEM: BOX BOUNDS mm mm mm
-500 500
-500 500
-500 500
ITEM: ATOMS id type xs ys zs
49 1 0.500726 0.500564 0.500665
46 1 0.500335 0.499732 0.500197
70 1 0.500141 0.499439 0.499863
68 1 0.498757 0.499351 0.499948
69 1 0.499199 0.500025 0.499863
71 1 0.500446 0.499342 0.499524
83 1 0.501499 0.499216 0.501048
82 1 0.500566 0.499651 0.50059
74 1 0.499915 0.499875 0.500468
54 1 0.500059 0.499584 0.498936
72 1 0.500801 0.498866 0.499688
73 1 0.500508 0.499696 0.501152
65 1 0.498565 0.49932 0.499114
64 1 0.498337 0.499719 0.499192
15 1 0.500995 0.499602 0.500259
16 1 0.499911 0.499836 0.499804
44 1 0.500039 0.499107 0.499584
47 1 0.500611 0.499456 0.499982
67 1 0.498641 0.499472 0.500418
66 1 0.499432 0.499279 0.500383
45 1 0.500573 0.49904 0.500578
53 1 0.500802 0.49973 0.498743
17 1 0.49979 0.501073 0.499466
120 1 0.499783 0.501446 0.500959
122 1 0.500704 0.501025 0.50105
75 1 0.500104 0.500136 0.500106
84 1 0.50102 0.499234 0.500543
88 1 0.500304 0.498632 0.499062
12 1 0.501883 0.499385 0.500372
13 1 0.501003 0.499922 0.501203
14 1 0.500735 0.499336 0.50096
42 1 0.499355 0.499572 0.500013
43 1 0.499877 0.499075 0.500089
89 1 0.501604 0.49875 0.499104
63 1 0.498663 0.500354 0.499207
90 1 0.501691 0.498968 0.500315
8 1 0.500349 0.500609 0.498607
78 1 0.500148 0.500507 0.499432
4 1 0.500793 0.499983 0.499138
93 1 0.500507 0.500559 0.501105
9 1 0.501156 0.500383 0.498791
55 1 0.500371 0.499882 0.498788
38 1 0.499114 0.500794 0.498614
7 1 0.500373 0.500253 0.49907
76 1 0.499336 0.499721 0.499548
85 1 0.500729 0.498536 0.500259
61 1 0.498588 0.499702 0.497676
48 1 0.500192 0.500002 0.501534
11 1 0.501316 0.499893 0.499579
87 1 0.500308 0.498677 0.499542
52 1 0.501012 0.499582 0.499111
62 1 0.498863 0.500136 0.498825
77 1 0.499667 0.499731 0.499201
80 1 0.499691 0.500235 0.499095
50 1 0.500695 0.501154 0.500224
59 1 0.498996 0.500324 0.497835
51 1 0.500602 0.500071 0.500006
99 1 0.50089 0.500064 0.500417
26 1 0.49812 0.501435 0.499839
34 1 0.499698 0.500495 0.500881
81 1 0.500529 0.500207 0.499502
96 1 0.500766 0.499339 0.501554
79 1 0.498861 0.499758 0.4991
24 1 0.498622 0.501309 0.499858
19 1 0.500385 0.501415 0.500601
37 1 0.498737 0.500015 0.499847
40 1 0.498837 0.499457 0.49946
25 1 0.498028 0.50138 0.500477
32 1 0.498233 0.500455 0.499433
36 1 0.499013 0.500588 0.500517
39 1 0.498521 0.500494 0.498778
41 1 0.49948 0.49851 0.499399
18 1 0.499943 0.500732 0.499811
30 1 0.498805 0.499971 0.501004
31 1 0.498156 0.500156 0.499795
35 1 0.500232 0.500577 0.5007
27 1 0.497882 0.501706 0.50015
23 1 0.49951 0.501558 0.500566
20 1 0.500261 0.50135 0.500153
21 1 0.499902 0.501371 0.499869
29 1 0.498789 0.500958 0.50013
3 1 0.501053 0.500863 0.499393
5 1 0.500201 0.499202 0.499106
6 1 0.500644 0.499304 0.498946
2 1 0.500355 0.500932 0.499984
22 1 0.499224 0.500837 0.500154
58 1 0.498878 0.499626 0.498429
60 1 0.498945 0.499859 0.498006
57 1 0.499174 0.499283 0.498573
98 1 0.501139 0.499022 0.501336
56 1 0.499609 0.499508 0.498768
28 1 0.498716 0.501407 0.500341
92 1 0.501371 0.499728 0.500499
91 1 0.502135 0.499947 0.499826
86 1 0.500125 0.498512 0.500016
95 1 0.501137 0.4995 0.501352
33 1 0.498802 0.500146 0.500551
100 1 0.500032 0.499626 0.501204
97 1 0.501388 0.498848 0.500815
94 1 0.500816 0.500175 0.501708
101 1 0.499584 0.499049 0.500899
102 1 0.499676 0.498849 0.500474
103 1 0.49832 0.499132 0.500459
104 1 0.498535 0.500516 0.500274
157 1 0.498423 0.500081 0.500255
158 1 0.499267 0.500363 0.500819
108 1 0.498667 0.500909 0.50058
105 1 0.498282 0.501116 0.50081
106 1 0.498165 0.501203 0.501381
107 1 0.498277 0.500745 0.501406
111 1 0.498555 0.50052 0.501859
113 1 0.499268 0.500637 0.501206
117 1 0.499025 0.500497 0.5017
110 1 0.498984 0.500913 0.500932
112 1 0.498372 0.50043 0.501061
130 1 0.499807 0.501587 0.499476
131 1 0.50007 0.501529 0.499055
135 1 0.501409 0.500852 0.499767
127 1 0.500362 0.500459 0.499859
159 1 0.499661 0.500649 0.500199
160 1 0.49947 0.501527 0.500079
185 1 0.500669 0.498868 0.501309
161 1 0.499122 0.501229 0.499876
186 1 0.501411 0.500383 0.50114
153 1 0.500021 0.499551 0.499422
149 1 0.500306 0.500978 0.500459
116 1 0.498567 0.500204 0.501427
121 1 0.499875 0.500844 0.500603
138 1 0.49975 0.500644 0.501303
114 1 0.499089 0.499799 0.500669
115 1 0.498818 0.500459 0.500986
118 1 0.500164 0.500477 0.501431
137 1 0.500334 0.501374 0.501079
145 1 0.501322 0.498232 0.501377
152 1 0.500964 0.500888 0.499943
151 1 0.500629 0.500783 0.499616
136 1 0.500685 0.501244 0.499762
146 1 0.500669 0.498929 0.501831
148 1 0.500535 0.500739 0.501538
150 1 0.500226 0.500958 0.499314
169 1 0.498914 0.500664 0.499752
187 1 0.502197 0.500773 0.500081
165 1 0.499436 0.50077 0.500607
170 1 0.499462 0.501154 0.500872
171 1 0.500115 0.500877 0.501091
184 1 0.500147 0.498819 0.500409
143 1 0.501046 0.498477 0.49989
190 1 0.501323 0.500368 0.499746
154 1 0.499236 0.49927 0.499674
191 1 0.50132 0.499479 0.499425
188 1 0.50144 0.499696 0.499999
140 1 0.499871 0.500363 0.500471
197 1 0.501072 0.499441 0.499841
201 1 0.500872 0.499282 0.49944
205 1 0.501141 0.499582 0.500892
202 1 0.500846 0.499894 0.499596
206 1 0.500177 0.499863 0.50083
207 1 0.500435 0.500074 0.500467
208 1 0.499273 0.499849 0.501161
214 1 0.499663 0.498527 0.500139
196 1 0.501476 0.499223 0.499039
200 1 0.500675 0.49848 0.499316
204 1 0.500942 0.500362 0.501091
199 1 0.501103 0.498603 0.499427
211 1 0.50058 0.500127 0.501279
212 1 0.499967 0.500172 0.501145
213 1 0.500248 0.499104 0.501288
215 1 0.499432 0.498983 0.499398
144 1 0.500964 0.498769 0.50057
209 1 0.49904 0.500222 0.501326
198 1 0.500991 0.498926 0.500114
210 1 0.499722 0.499887 0.50145
119 1 0.49975 0.501117 0.501289
125 1 0.502092 0.500063 0.500739
132 1 0.50029 0.502161 0.499016
164 1 0.498968 0.500107 0.499434
124 1 0.500188 0.500589 0.500266
162 1 0.499548 0.501157 0.500345
189 1 0.501537 0.500168 0.500243
133 1 0.500089 0.502252 0.499479
147 1 0.500595 0.499789 0.501593
167 1 0.499334 0.500136 0.500414
181 1 0.499591 0.499455 0.501629
128 1 0.499624 0.500088 0.500059
166 1 0.498945 0.499779 0.500173
163 1 0.499822 0.500681 0.499148
129 1 0.499362 0.500506 0.499847
134 1 0.500231 0.501415 0.499548
176 1 0.500543 0.498507 0.500685
178 1 0.499589 0.499505 0.500841
182 1 0.499767 0.499823 0.501961
183 1 0.500314 0.499349 0.500849
141 1 0.499884 0.499286 0.500578
175 1 0.500188 0.498916 0.500846
180 1 0.500046 0.499555 0.501652
203 1 0.501191 0.500423 0.500498
126 1 0.501171 0.500072 0.500787
179 1 0.499502 0.500242 0.501236
172 1 0.49958 0.500026 0.500802
174 1 0.500039 0.49847 0.500845
177 1 0.500402 0.499041 0.499881
173 1 0.500265 0.499271 0.500282
109 1 0.499071 0.501138 0.500513
156 1 0.497554 0.499817 0.499395
123 1 0.499954 0.501005 0.500181
139 1 0.499926 0.501351 0.500501
195 1 0.501178 0.499456 0.498679
192 1 0.500399 0.499466 0.49858
194 1 0.500559 0.499154 0.498074
217 1 0.499687 0.498786 0.49974
142 1 0.500593 0.498406 0.49981
193 1 0.500643 0.500288 0.498259
168 1 0.49899 0.500326 0.500144
219 1 0.499782 0.499547 0.500179
218 1 0.499071 0.499052 0.50019
155 1 0.498418 0.499301 0.499624
10 1 0.501248 0.499911 0.498873
239 1 0.501108 0.500003 0.499973
251 1 0.500659 0.500644 0.49915
240 1 0.501725 0.499393 0.499693
232 1 0.500034 0.500029 0.499356
222 1 0.499271 0.499447 0.499168
245 1 0.500638 0.500643 0.500233
246 1 0.499188 0.501233 0.499422
233 1 0.499435 0.500191 0.499486
223 1 0.49976 0.499365 0.49808
243 1 0.50135 0.499283 0.500183
250 1 0.500966 0.500343 0.499395
220 1 0.498991 0.499112 0.498944
224 1 0.499427 0.499061 0.49886
225 1 0.4998 0.498818 0.499019
252 1 0.500726 0.500188 0.498708
221 1 0.499746 0.499267 0.499157
248 1 0.500394 0.499856 0.498348
249 1 0.499833 0.500288 0.499706
227 1 0.499534 0.499705 0.497834
226 1 0.499961 0.499766 0.498527
230 1 0.499276 0.499992 0.499122
228 1 0.499185 0.499725 0.498758
229 1 0.499098 0.500459 0.499119
231 1 0.500034 0.5002 0.49874
247 1 0.500673 0.501118 0.499281
238 1 0.500851 0.500435 0.499858
237 1 0.500447 0.499637 0.499188
244 1 0.500706 0.500001 0.500842
236 1 0.500531 0.498864 0.498672
242 1 0.501377 0.498618 0.500338
241 1 0.500564 0.498949 0.499278
254 1 0.5005 0.501001 0.498796
255 1 0.500174 0.500292 0.498282
253 1 0.50014 0.500738 0.498115
256 1 0.500194 0.499487 0.498157
235 1 0.499967 0.499296 0.49849
216 1 0.499696 0.499388 0.499739
1 1 0.499563 0.501027 0.499883
234 1 0.50037 0.499791 0.499658
ITEM: TIMESTEP
200000
ITEM: NUMBER OF ATOMS
256
ITEM: BOX BOUNDS mm mm mm
-500 500
-500 500
-500 500
ITEM: ATOMS id type xs ys zs
142 1 0.500717 0.500035 0.4986
49 1 0.49994 0.499379 0.500349
46 1 0.499131 0.500438 0.501012
70 1 0.499677 0.499535 0.499973
68 1 0.499994 0.49884 0.498769
69 1 0.500129 0.499556 0.499271
71 1 0.499973 0.500124 0.500064
83 1 0.500057 0.500774 0.499578
82 1 0.500459 0.500531 0.499515
74 1 0.499391 0.500572 0.498943
54 1 0.499489 0.500549 0.500754
72 1 0.500092 0.500296 0.499576
73 1 0.499491 0.499817 0.499048
65 1 0.499565 0.500229 0.500412
64 1 0.50055 0.500558 0.500155
15 1 0.502263 0.499587 0.49844
16 1 0.501997 0.500137 0.499017
44 1 0.499304 0.499567 0.501006
47 1 0.499019 0.499948 0.500957
67 1 0.500216 0.499506 0.498461
66 1 0.499513 0.499956 0.500078
45 1 0.498888 0.499893 0.501545
53 1 0.498493 0.50064 0.500062
17 1 0.501594 0.49957 0.498992
120 1 0.50056 0.498783 0.500958
122 1 0.500654 0.49976 0.500523
75 1 0.499729 0.500189 0.498933
84 1 0.500402 0.501333 0.500474
88 1 0.500678 0.500823 0.499792
12 1 0.501464 0.499526 0.499443
13 1 0.501798 0.499858 0.499358
14 1 0.501831 0.499322 0.499286
42 1 0.499038 0.498757 0.500793
43 1 0.498728 0.498941 0.501548
89 1 0.499681 0.500912 0.499054
63 1 0.501801 0.500587 0.499771
90 1 0.49901 0.499932 0.498958
8 1 0.500025 0.500416 0.500424
78 1 0.500725 0.499304 0.499523
4 1 0.500033 0.500286 0.500899
93 1 0.498075 0.499809 0.499945
9 1 0.500415 0.500153 0.499934
55 1 0.49933 0.501397 0.500377
38 1 0.499168 0.499601 0.500075
7 1 0.501542 0.500397 0.50058
76 1 0.499679 0.499501 0.499346
85 1 0.500887 0.501353 0.5006
61 1 0.500599 0.500168 0.499204
48 1 0.499358 0.499944 0.501286
11 1 0.500806 0.499921 0.499552
87 1 0.500188 0.501124 0.500855
52 1 0.499164 0.500613 0.500416
62 1 0.501274 0.500555 0.499093
77 1 0.500088 0.499517 0.499732
80 1 0.500566 0.499644 0.499859
50 1 0.500228 0.499597 0.500686
59 1 0.500873 0.499298 0.500197
51 1 0.499577 0.500717 0.499692
99 1 0.499332 0.499425 0.499677
26 1 0.499861 0.499317 0.498948
34 1 0.498746 0.500847 0.500389
81 1 0.499864 0.499891 0.499549
96 1 0.499346 0.500223 0.499219
79 1 0.501185 0.499194 0.499532
24 1 0.500358 0.49849 0.498876
19 1 0.501646 0.499059 0.498892
37 1 0.498897 0.49962 0.499702
40 1 0.498278 0.499024 0.500515
25 1 0.500115 0.498666 0.499276
32 1 0.498668 0.499819 0.50034
36 1 0.498595 0.499271 0.499788
39 1 0.497857 0.498912 0.500291
41 1 0.498619 0.498994 0.500863
18 1 0.501271 0.498999 0.498387
30 1 0.498693 0.49973 0.499255
31 1 0.498138 0.499847 0.500425
35 1 0.49794 0.500195 0.500097
27 1 0.499397 0.499236 0.499069
23 1 0.500211 0.498574 0.498429
20 1 0.501 0.498802 0.498697
21 1 0.500643 0.499641 0.498312
29 1 0.499159 0.49898 0.499723
3 1 0.500094 0.499653 0.501163
5 1 0.50079 0.50019 0.501058
6 1 0.500338 0.500084 0.500369
2 1 0.500471 0.50016 0.501898
22 1 0.500312 0.499743 0.498874
58 1 0.500215 0.499724 0.500175
60 1 0.50121 0.500004 0.499788
57 1 0.500279 0.500938 0.499977
98 1 0.498653 0.500281 0.499046
56 1 0.499868 0.501495 0.500705
28 1 0.499146 0.499579 0.499279
92 1 0.498008 0.499776 0.500917
91 1 0.498054 0.500211 0.500704
86 1 0.500559 0.501414 0.500931
95 1 0.499647 0.500246 0.499705
33 1 0.498724 0.500371 0.499746
100 1 0.500436 0.499358 0.50033
97 1 0.499199 0.500435 0.499616
94 1 0.498526 0.499941 0.499895
101 1 0.50008 0.498787 0.499716
102 1 0.500391 0.500024 0.50084
103 1 0.500555 0.500485 0.50134
104 1 0.500509 0.500495 0.500763
157 1 0.499531 0.501149 0.500896
158 1 0.500237 0.500709 0.501068
108 1 0.501073 0.499748 0.500345
105 1 0.501617 0.500531 0.501029
106 1 0.501446 0.499927 0.500573
107 1 0.501437 0.499403 0.5007
111 1 0.500595 0.499672 0.499224
113 1 0.500029 0.499116 0.499362
117 1 0.500423 0.499248 0.50135
110 1 0.501634 0.5002 0.499973
112 1 0.500449 0.498925 0.499474
130 1 0.500795 0.500061 0.497746
135 1 0.499837 0.499204 0.49848
127 1 0.500768 0.499605 0.498828
159 1 0.500123 0.501211 0.501323
160 1 0.500544 0.501029 0.501207
185 1 0.500568 0.499618 0.501043
161 1 0.501083 0.500384 0.500691
186 1 0.499911 0.500739 0.50071
153 1 0.498656 0.499445 0.501487
149 1 0.500842 0.501076 0.501568
116 1 0.499951 0.499244 0.501359
121 1 0.500168 0.499124 0.500672
138 1 0.5008 0.499144 0.498987
114 1 0.499927 0.499965 0.500591
115 1 0.499007 0.499593 0.500526
118 1 0.500727 0.499592 0.50151
137 1 0.500324 0.499905 0.499538
145 1 0.500803 0.500334 0.499766
152 1 0.499754 0.499909 0.501022
151 1 0.499908 0.499954 0.501496
136 1 0.499869 0.499766 0.498692
146 1 0.500689 0.501 0.500274
148 1 0.500969 0.501733 0.500888
150 1 0.49984 0.500314 0.501835
169 1 0.501062 0.500764 0.500088
187 1 0.499136 0.499992 0.500324
165 1 0.500938 0.500667 0.499439
170 1 0.501211 0.500192 0.500281
171 1 0.500967 0.499436 0.500637
184 1 0.500279 0.500842 0.500445