ITEM: TIMESTEP
361000
ITEM: NUMBER OF ATOMS
256
ITEM: BOX BOUNDS mm mm mm
-500 500
-500 500
-500 500
ITEM: ATOMS id type xs ys zs
78 1 0.492628 0.500099 0.49952
88 1 0.493529 0.497304 0.495934
79 1 0.49268 0.498876 0.499288
160 1 0.493011 0.496751 0.496763
161 1 0.49334 0.497868 0.497164
162 1 0.49329 0.498051 0.498368
163 1 0.49275 0.497199 0.497957
164 1 0.49249 0.496223 0.498615
165 1 0.493096 0.495985 0.499368
158 1 0.493883 0.496199 0.496683
157 1 0.494428 0.495258 0.497022
92 1 0.494449 0.49642 0.499355
90 1 0.494793 0.497299 0.497509
80 1 0.493755 0.49886 0.499115
91 1 0.493893 0.497314 0.498446
81 1 0.494249 0.498281 0.498163
156 1 0.494909 0.496141 0.497231
219 1 0.499297 0.499509 0.49547
241 1 0.49918 0.498375 0.497941
89 1 0.49423 0.497413 0.496654
236 1 0.499926 0.498127 0.498753
249 1 0.498129 0.497465 0.495608
104 1 0.497949 0.496348 0.497856
218 1 0.498622 0.498729 0.494915
84 1 0.495956 0.498326 0.497671
87 1 0.494279 0.498136 0.495877
86 1 0.494901 0.498103 0.496701
206 1 0.499672 0.499761 0.497226
246 1 0.497248 0.498253 0.496625
216 1 0.49819 0.499733 0.495647
47 1 0.495491 0.497168 0.495459
72 1 0.49475 0.49808 0.4994
193 1 0.497323 0.49895 0.498565
245 1 0.497293 0.49936 0.496282
103 1 0.49771 0.495141 0.497953
146 1 0.497217 0.498337 0.49536
152 1 0.495829 0.495902 0.497668
154 1 0.496469 0.495236 0.496825
101 1 0.497374 0.495754 0.497181
53 1 0.500057 0.496641 0.496756
50 1 0.498093 0.496601 0.496215
100 1 0.496917 0.496372 0.497948
102 1 0.497446 0.494661 0.497007
243 1 0.498056 0.497917 0.497841
159 1 0.49425 0.496613 0.495747
94 1 0.494798 0.495107 0.498572
192 1 0.498333 0.499439 0.499206
153 1 0.496431 0.495083 0.497922
71 1 0.495849 0.498149 0.499115
85 1 0.495294 0.49855 0.495741
48 1 0.496269 0.496264 0.495508
42 1 0.498802 0.496963 0.497564
46 1 0.496366 0.497815 0.495471
235 1 0.498949 0.497003 0.499436
49 1 0.497111 0.496142 0.496281
128 1 0.494315 0.49951 0.498562
105 1 0.498697 0.496299 0.498623
93 1 0.494012 0.495994 0.498268
97 1 0.495395 0.496983 0.499317
253 1 0.49947 0.498331 0.496012
234 1 0.500037 0.496633 0.499772
51 1 0.498378 0.495824 0.497069
144 1 0.497208 0.498531 0.493971
173 1 0.494721 0.495181 0.499896
247 1 0.498417 0.497782 0.496728
45 1 0.49716 0.497341 0.495931
145 1 0.496394 0.498779 0.494787
54 1 0.499987 0.49693 0.497692
149 1 0.495456 0.496556 0.496191
148 1 0.495876 0.497588 0.496471
250 1 0.499486 0.497381 0.495981
147 1 0.496539 0.49883 0.495923
76 1 0.494008 0.49962 0.499846
150 1 0.495769 0.496984 0.49762
188 1 0.495309 0.499836 0.498621
98 1 0.49615 0.497035 0.498694
151 1 0.496407 0.496307 0.496968
248 1 0.498139 0.498602 0.495885
52 1 0.499342 0.496008 0.497599
82 1 0.495113 0.498745 0.498243
96 1 0.495112 0.496544 0.498338
95 1 0.495772 0.495976 0.498834
27 1 0.499262 0.499656 0.499239
207 1 0.499115 0.499142 0.496642
194 1 0.497823 0.499952 0.498247
244 1 0.498042 0.498738 0.497109
55 1 0.499549 0.497714 0.497102
83 1 0.49516 0.497643 0.49841
143 1 0.497551 0.499213 0.494936
155 1 0.495428 0.495463 0.496587
44 1 0.496694 0.49741 0.497157
43 1 0.497695 0.497075 0.497084
40 1 0.497847 0.497141 0.498569
41 1 0.498878 0.497507 0.498464
130 1 0.495009 0.499607 0.497588
251 1 0.499199 0.497817 0.495016
68 1 0.497246 0.499255 0.497576
131 1 0.495405 0.499486 0.496333
142 1 0.496808 0.499799 0.495255
73 1 0.493997 0.49727 0.499598
132 1 0.494982 0.499555 0.495298
205 1 0.498766 0.50001 0.497683
217 1 0.498313 0.499773 0.49454
69 1 0.496251 0.499465 0.497269
106 1 0.499885 0.495379 0.499068
187 1 0.495472 0.499457 0.499663
28 1 0.499145 0.498642 0.499264
190 1 0.497041 0.49977 0.499021
191 1 0.497433 0.499066 0.499636
186 1 0.496444 0.499025 0.499488
70 1 0.496295 0.499111 0.498432
242 1 0.498346 0.499061 0.498166
29 1 0.49812 0.498233 0.498869
240 1 0.4995 0.499369 0.498254
99 1 0.497069 0.495673 0.498649
39 1 0.497722 0.496344 0.499319
237 1 0.499946 0.497751 0.499899
37 1 0.498152 0.49546 0.498922
36 1 0.497436 0.495306 0.499721
32 1 0.49663 0.497058 0.49989
107 1 0.499221 0.494706 0.499671
31 1 0.497044 0.498065 0.499452
30 1 0.497056 0.49785 0.49842
38 1 0.498774 0.49595 0.499497
35 1 0.496347 0.494714 0.499186
33 1 0.496681 0.496048 0.499669
166 1 0.492488 0.496531 0.500074
176 1 0.492931 0.495899 0.501646
177 1 0.493714 0.49686 0.501803
178 1 0.493487 0.497798 0.501286
167 1 0.492808 0.497494 0.499865
174 1 0.493586 0.495577 0.500236
74 1 0.493603 0.498255 0.499938
184 1 0.498625 0.500117 0.500271
185 1 0.497581 0.499496 0.500643
17 1 0.498256 0.499524 0.501508
180 1 0.495126 0.498519 0.500197
117 1 0.496109 0.49815 0.502329
114 1 0.497253 0.497909 0.501568
111 1 0.498537 0.49648 0.500643
109 1 0.498942 0.496176 0.501617
181 1 0.495737 0.499619 0.500699
115 1 0.496739 0.496659 0.500892
118 1 0.49637 0.499464 0.502587
113 1 0.497675 0.498085 0.500533
175 1 0.493929 0.49587 0.501199
108 1 0.499682 0.495651 0.500067
116 1 0.495944 0.497254 0.501861
112 1 0.497752 0.497165 0.500021
110 1 0.49858 0.497444 0.501229
121 1 0.497071 0.499751 0.50181
182 1 0.496677 0.499724 0.500258
34 1 0.496323 0.495663 0.50068
170 1 0.495275 0.496196 0.500021
179 1 0.494786 0.497783 0.501503
172 1 0.495178 0.495678 0.50088
10 1 0.499615 0.499257 0.501081
75 1 0.493695 0.49887 0.500791
171 1 0.495583 0.496734 0.500907
168 1 0.493718 0.49694 0.500732
169 1 0.494692 0.497168 0.500499
77 1 0.493577 0.500527 0.499599
65 1 0.497209 0.501411 0.497545
209 1 0.498635 0.501277 0.496416
204 1 0.499909 0.500602 0.49803
133 1 0.495854 0.500078 0.495135
137 1 0.495863 0.500856 0.498348
208 1 0.498197 0.499954 0.496784
198 1 0.498658 0.502343 0.497623
215 1 0.497447 0.50044 0.495924
196 1 0.496729 0.501418 0.499016
210 1 0.49989 0.50129 0.49606
197 1 0.497876 0.502008 0.498547
200 1 0.499211 0.502489 0.498489
138 1 0.496114 0.501797 0.49791
134 1 0.494912 0.500461 0.495951
23 1 0.497911 0.502808 0.499833
136 1 0.495749 0.500377 0.497353
25 1 0.498171 0.50115 0.499105
214 1 0.498245 0.501354 0.495207
199 1 0.498205 0.503274 0.498075
135 1 0.494584 0.500471 0.496928
26 1 0.499119 0.500639 0.499536
213 1 0.499245 0.500943 0.494959
195 1 0.497365 0.500837 0.498458
127 1 0.494708 0.500274 0.499354
63 1 0.498876 0.50138 0.498107
62 1 0.49881 0.500315 0.498683
189 1 0.495998 0.500271 0.499201
139 1 0.496442 0.501144 0.496893
221 1 0.499621 0.501202 0.497054
220 1 0.49926 0.500418 0.496184
64 1 0.498209 0.500878 0.497613
66 1 0.497347 0.500393 0.497157
67 1 0.496832 0.500094 0.497915
140 1 0.496301 0.500343 0.496204
129 1 0.49482 0.500618 0.498124
141 1 0.496631 0.500978 0.495437
24 1 0.497451 0.501816 0.499682
21 1 0.498555 0.501931 0.499639
183 1 0.497567 0.500321 0.499916
124 1 0.496734 0.500865 0.499865
22 1 0.499006 0.503159 0.49977
126 1 0.494789 0.500135 0.500405
1 1 0.498449 0.503495 0.501979
3 1 0.499867 0.50307 0.501258
20 1 0.498129 0.50129 0.500316
19 1 0.498113 0.501444 0.501362
13 1 0.499656 0.501577 0.500432
119 1 0.496213 0.50046 0.501759
12 1 0.498896 0.500929 0.500868
122 1 0.496816 0.500464 0.500961
120 1 0.497172 0.500862 0.501955
2 1 0.499302 0.502722 0.502128
18 1 0.497851 0.500434 0.500996
16 1 0.499111 0.500163 0.501551
11 1 0.499723 0.500458 0.500276
125 1 0.495722 0.500858 0.500225
123 1 0.496992 0.501526 0.500762
233 1 0.500815 0.497229 0.499448
56 1 0.500506 0.498383 0.497548
225 1 0.501823 0.499151 0.495623
57 1 0.501236 0.498782 0.49708
229 1 0.501285 0.496546 0.496914
239 1 0.500764 0.499157 0.498466
230 1 0.50118 0.497255 0.497741
232 1 0.50124 0.498206 0.499613
256 1 0.501003 0.499764 0.494905
226 1 0.500965 0.498528 0.495966
231 1 0.50115 0.497935 0.498601
228 1 0.50145 0.497694 0.496831
238 1 0.500163 0.499123 0.499389
254 1 0.500282 0.499249 0.496354
227 1 0.500432 0.497614 0.496412
58 1 0.501813 0.499399 0.498092
252 1 0.500302 0.498034 0.495349
9 1 0.500059 0.498696 0.500286
60 1 0.500964 0.500208 0.498053
61 1 0.500138 0.500147 0.498962
202 1 0.500496 0.50103 0.499379
203 1 0.499816 0.501518 0.498494
201 1 0.500879 0.502182 0.498875
211 1 0.500927 0.501382 0.495756
212 1 0.500196 0.501337 0.495061
224 1 0.501653 0.500113 0.496124
255 1 0.500161 0.500186 0.495685
223 1 0.501124 0.500055 0.497053
59 1 0.501467 0.500024 0.498945
222 1 0.500601 0.500941 0.496882
8 1 0.500703 0.499894 0.499943
6 1 0.501445 0.501088 0.5
7 1 0.501685 0.500144 0.500318
14 1 0.500581 0.501256 0.50074
5 1 0.501484 0.501842 0.500725
15 1 0.500244 0.500485 0.501632
4 1 0.500711 0.502825 0.500558
ITEM: TIMESTEP
362000
ITEM: NUMBER OF ATOMS
256
ITEM: BOX BOUNDS mm mm mm
-500 500
-500 500
-500 500
ITEM: ATOMS id type xs ys zs
78 1 0.492657 0.500492 0.497695
88 1 0.49489 0.498724 0.496321
79 1 0.492425 0.500019 0.49875
160 1 0.49345 0.497844 0.496472
161 1 0.492586 0.497968 0.497342
162 1 0.492386 0.497304 0.498127
163 1 0.493309 0.497133 0.49726
164 1 0.492242 0.496611 0.497073
165 1 0.492314 0.495621 0.497273
158 1 0.493761 0.496918 0.496392
157 1 0.494669 0.49635 0.496087
92 1 0.493534 0.496004 0.497994
90 1 0.493497 0.497903 0.498104
80 1 0.49227 0.498439 0.499103
91 1 0.493874 0.496646 0.498738
81 1 0.492996 0.498818 0.498401
156 1 0.494265 0.49621 0.497181
219 1 0.498482 0.50008 0.49487
241 1 0.498274 0.49995 0.498362
89 1 0.493447 0.498543 0.497352
236 1 0.49983 0.497879 0.499812
249 1 0.498536 0.497825 0.495506
104 1 0.498319 0.496228 0.498987
218 1 0.498062 0.499041 0.494708
84 1 0.495356 0.497485 0.497878
87 1 0.49438 0.497905 0.497004
86 1 0.495329 0.497543 0.49677
206 1 0.499508 0.499747 0.498629
246 1 0.498454 0.498009 0.497546
216 1 0.497801 0.499689 0.496358
47 1 0.496527 0.495174 0.496517
72 1 0.495278 0.498068 0.498957
193 1 0.496976 0.500534 0.497906
245 1 0.499006 0.49884 0.497128
103 1 0.497708 0.49529 0.498342
146 1 0.497815 0.497665 0.49666
152 1 0.495776 0.495602 0.497317
154 1 0.494982 0.495285 0.496635
101 1 0.496546 0.49487 0.497666
53 1 0.499205 0.49718 0.496969
50 1 0.498431 0.4962 0.497045
100 1 0.496466 0.495212 0.498656
102 1 0.49681 0.495917 0.49802
243 1 0.499338 0.498797 0.498203
159 1 0.494363 0.49756 0.495846
94 1 0.493106 0.495051 0.497837
192 1 0.497512 0.500418 0.499029
153 1 0.495064 0.494872 0.497583
71 1 0.496003 0.498401 0.499882
85 1 0.495527 0.498479 0.49729
48 1 0.497594 0.495532 0.497106
42 1 0.498595 0.497149 0.499209
46 1 0.496242 0.496802 0.496261
235 1 0.49956 0.496645 0.499096
49 1 0.497903 0.49631 0.497942
128 1 0.494429 0.500222 0.498423
105 1 0.499081 0.495722 0.499443
93 1 0.493416 0.495718 0.496989
97 1 0.49516 0.497012 0.498968
253 1 0.498998 0.49951 0.496371
234 1 0.500035 0.497548 0.498831
51 1 0.499299 0.495747 0.497576
144 1 0.49649 0.498836 0.496565
173 1 0.494101 0.493988 0.498538
247 1 0.497695 0.49878 0.496905
45 1 0.497219 0.496782 0.496771
145 1 0.497316 0.498392 0.496074
54 1 0.500095 0.497203 0.497668
149 1 0.496129 0.497034 0.497481
148 1 0.496841 0.49778 0.496743
250 1 0.49953 0.49781 0.496039
147 1 0.497394 0.498126 0.497693
76 1 0.494126 0.499302 0.497986
150 1 0.496573 0.496155 0.497007
188 1 0.49521 0.499176 0.498443
98 1 0.496069 0.496691 0.498618
151 1 0.495427 0.496476 0.496922
248 1 0.498446 0.498791 0.495792
52 1 0.498949 0.496677 0.498184
82 1 0.494484 0.498263 0.498019
96 1 0.494887 0.496309 0.497984
95 1 0.494383 0.495436 0.498259
27 1 0.499346 0.499715 0.501007
207 1 0.499456 0.49969 0.497593
194 1 0.497895 0.500888 0.497949
244 1 0.498161 0.498779 0.498205
55 1 0.500055 0.498238 0.497542
83 1 0.494339 0.497173 0.498047
143 1 0.496266 0.500204 0.49571
155 1 0.494053 0.495001 0.497278
44 1 0.497111 0.497164 0.497718
43 1 0.497839 0.497433 0.498406
40 1 0.497549 0.497081 0.499422
41 1 0.498037 0.498138 0.499219
130 1 0.495974 0.499985 0.497792
251 1 0.499533 0.498769 0.495626
68 1 0.497503 0.499727 0.497439
131 1 0.495016 0.499784 0.497632
142 1 0.497635 0.500631 0.495403
73 1 0.494293 0.497593 0.498988
132 1 0.495256 0.4995 0.496718
205 1 0.498833 0.50027 0.49932
217 1 0.496894 0.499313 0.495473
69 1 0.496707 0.498986 0.497803
106 1 0.498817 0.496124 0.500632
187 1 0.496114 0.498965 0.498872
28 1 0.498641 0.499588 0.500001
190 1 0.496449 0.500086 0.498819
191 1 0.4974 0.499512 0.498427
186 1 0.496665 0.499367 0.499777
70 1 0.49668 0.497903 0.498906
242 1 0.498829 0.497912 0.498578
29 1 0.497597 0.499725 0.499933
240 1 0.498175 0.499268 0.499126
99 1 0.496947 0.496313 0.499029
39 1 0.49764 0.496436 0.500172
237 1 0.500315 0.498855 0.500387
37 1 0.496628 0.494845 0.499581
36 1 0.495625 0.495247 0.499723
32 1 0.496348 0.497133 0.499515
107 1 0.497724 0.496994 0.501195
31 1 0.496951 0.498192 0.500083
30 1 0.497318 0.498768 0.499196
38 1 0.496138 0.496052 0.499814
35 1 0.495672 0.495629 0.500865
33 1 0.496269 0.496957 0.500827
166 1 0.492307 0.496178 0.498082
176 1 0.493843 0.496671 0.500412
177 1 0.493576 0.496688 0.501478
178 1 0.493592 0.497844 0.500671
167 1 0.49289 0.496622 0.498875
174 1 0.49354 0.49517 0.498918
74 1 0.493381 0.498271 0.499414
184 1 0.49694 0.499014 0.50126
185 1 0.497157 0.497954 0.501373
17 1 0.498458 0.500178 0.501816
180 1 0.495226 0.497865 0.500612
117 1 0.496896 0.498763 0.50293
114 1 0.498083 0.498881 0.501362
111 1 0.497678 0.497624 0.500397
109 1 0.498392 0.497936 0.501325
181 1 0.495284 0.498893 0.500373
115 1 0.497693 0.499219 0.502247
118 1 0.497291 0.499021 0.503846
113 1 0.497896 0.498853 0.5003
175 1 0.493661 0.495966 0.49975
108 1 0.497974 0.497312 0.502287
116 1 0.497916 0.498295 0.502825
112 1 0.498932 0.498611 0.500304
110 1 0.498629 0.497313 0.500451
121 1 0.496315 0.500885 0.501965
182 1 0.4959 0.499513 0.501026
34 1 0.495243 0.496633 0.500804
170 1 0.494649 0.496122 0.499227
179 1 0.494527 0.498098 0.499949
172 1 0.494611 0.494681 0.49917
10 1 0.498377 0.500253 0.500769
75 1 0.493711 0.499341 0.499247
171 1 0.495384 0.495534 0.498528
168 1 0.493384 0.497162 0.499681
169 1 0.494706 0.497104 0.499905
77 1 0.493411 0.499908 0.498232
65 1 0.497704 0.501878 0.497438
209 1 0.498752 0.501168 0.497465
204 1 0.499244 0.5007 0.498243
133 1 0.494323 0.499902 0.496736
137 1 0.496516 0.502243 0.497841
208 1 0.498495 0.499989 0.497308
198 1 0.497622 0.501596 0.499462
215 1 0.497829 0.50089 0.496929
196 1 0.49707 0.502447 0.499072
210 1 0.499875 0.501199 0.497411
197 1 0.4977 0.502934 0.498256
200 1 0.499508 0.503032 0.499073
138 1 0.496827 0.502474 0.496732
134 1 0.49515 0.500729 0.496835
23 1 0.496442 0.50163 0.500058
136 1 0.496407 0.501457 0.498605
25 1 0.498156 0.500744 0.499811
214 1 0.498184 0.50162 0.496153
199 1 0.498436 0.502716 0.499005
135 1 0.495824 0.501073 0.49762
26 1 0.499432 0.500305 0.500202
213 1 0.499226 0.502285 0.495944
195 1 0.497449 0.501719 0.498363
127 1 0.494701 0.499059 0.499323
63 1 0.498401 0.502281 0.498068
62 1 0.498576 0.50135 0.498909
189 1 0.495385 0.500139 0.498894
139 1 0.496395 0.501864 0.495879
221 1 0.499302 0.500492 0.496867
220 1 0.498658 0.500727 0.49593
64 1 0.498048 0.50278 0.497166
66 1 0.496824 0.501205 0.497159
67 1 0.496736 0.500149 0.496794
140 1 0.496053 0.500967 0.496494
129 1 0.494044 0.500444 0.497569
141 1 0.4972 0.501071 0.496162
24 1 0.497072 0.50078 0.499937
21 1 0.498134 0.502425 0.500673
183 1 0.496829 0.499897 0.500668
124 1 0.495646 0.499762 0.500074
22 1 0.496997 0.502296 0.50063
126 1 0.49438 0.499769 0.500002
1 1 0.498751 0.50269 0.501654
3 1 0.500039 0.502662 0.500006
20 1 0.497982 0.501505 0.501119
19 1 0.496967 0.501885 0.502048
13 1 0.499495 0.502072 0.500688
119 1 0.497202 0.499694 0.503052
12 1 0.499911 0.501515 0.499761
122 1 0.496874 0.501168 0.501067
120 1 0.497178 0.500385 0.501898
2 1 0.49941 0.503328 0.500702
18 1 0.497728 0.501409 0.50273
16 1 0.498776 0.501643 0.501772
11 1 0.498829 0.501119 0.500614
125 1 0.494922 0.500351 0.500618
123 1 0.496007 0.500521 0.500911
233 1 0.500748 0.49825 0.498409
56 1 0.500296 0.499315 0.498193
225 1 0.500967 0.500756 0.496847
57 1 0.501301 0.499053 0.498091
229 1 0.50212 0.499562 0.497295
239 1 0.499204 0.498838 0.499198
230 1 0.502315 0.49971 0.498352
232 1 0.50028 0.498971 0.499168
256 1 0.49962 0.501317 0.495671
226 1 0.501048 0.499941 0.49579
231 1 0.501418 0.499642 0.499797
228 1 0.501704 0.49902 0.4962
238 1 0.500293 0.49995 0.499611
254 1 0.499919 0.499827 0.495945
227 1 0.500693 0.498773 0.495988
58 1 0.501248 0.499809 0.498654
252 1 0.499896 0.499172 0.496819
9 1 0.499814 0.500863 0.501025
60 1 0.500939 0.500777 0.499458
61 1 0.500273 0.501021 0.498605
202 1 0.498985 0.502158 0.499729
203 1 0.499527 0.501963 0.498573
201 1 0.498807 0.503156 0.499986
211 1 0.498821 0.502079 0.496871
212 1 0.498373 0.502994 0.495951
224 1 0.501497 0.500297 0.49772
255 1 0.499444 0.500334 0.495103
223 1 0.501067 0.499518 0.497064
59 1 0.502165 0.500731 0.498449
222 1 0.500373 0.50036 0.497686
8 1 0.49981 0.498944 0.501719
6 1 0.500715 0.500143 0.500534
7 1 0.500714 0.499386 0.501299
14 1 0.500021 0.50185 0.50152
5 1 0.500971 0.501469 0.500402
15 1 0.499302 0.500839 0.502027
4 1 0.500972 0.501995 0.499575
ITEM: TIMESTEP
363000
ITEM: NUMBER OF ATOMS
256
ITEM: BOX BOUNDS mm mm mm
-500 500
-500 500
-500 500
ITEM: ATOMS id type xs ys zs
78 1 0.493325 0.499232 0.499023
88 1 0.494175 0.498814 0.496692
79 1 0.493126 0.499201 0.497444
160 1 0.493718 0.499324 0.495905
161 1 0.492919 0.498721 0.496426
162 1 0.49344 0.4979 0.496903
163 1 0.493513 0.497156 0.497816
164 1 0.492419 0.496054 0.496893
165 1 0.493025 0.49551 0.497586
158 1 0.495438 0.497057 0.495769
157 1 0.495617 0.49706 0.494836
92 1 0.493842 0.496317 0.496032
90 1 0.494997 0.497256 0.497955
80 1 0.493203 0.49812 0.49845
91 1 0.494403 0.49693 0.497005
81 1 0.493953 0.498815 0.498058
156 1 0.495753 0.495978 0.496025
219 1 0.499618 0.501163 0.496792
241 1 0.498146 0.498349 0.498199
89 1 0.494318 0.497996 0.497528
236 1 0.499529 0.49801 0.499737
249 1 0.498052 0.498017 0.495339
104 1 0.498602 0.494777 0.499405
218 1 0.500447 0.500639 0.495929
84 1 0.495816 0.49795 0.497746
87 1 0.494937 0.498831 0.495812
86 1 0.495792 0.498053 0.496157
206 1 0.498728 0.499251 0.498399
246 1 0.497879 0.49876 0.496395
216 1 0.498557 0.500711 0.495595
47 1 0.496964 0.496339 0.496709
72 1 0.495129 0.49741 0.499159
193 1 0.497012 0.500326 0.4988
245 1 0.49862 0.498152 0.496594
103 1 0.497653 0.494761 0.498794
146 1 0.496813 0.498304 0.496506
152 1 0.49531 0.495229 0.497255
154 1 0.494514 0.494726 0.495359
101 1 0.497257 0.494246 0.499715
53 1 0.499458 0.496794 0.495455
50 1 0.498728 0.495795 0.497618
100 1 0.496933 0.495094 0.499383
102 1 0.496908 0.495059 0.49813
243 1 0.499254 0.497174 0.497486
159 1 0.494268 0.497696 0.495743
94 1 0.494051 0.494703 0.496659
192 1 0.497898 0.500142 0.498998
153 1 0.49571 0.494696 0.495962
71 1 0.495551 0.498146 0.499821
85 1 0.495762 0.497271 0.496808
48 1 0.49758 0.495606 0.49721
42 1 0.497646 0.496515 0.499002
46 1 0.498081 0.496641 0.497132
235 1 0.498852 0.497097 0.499812
49 1 0.497791 0.495719 0.498218
128 1 0.495562 0.498524 0.498788
105 1 0.497839 0.495086 0.500028
93 1 0.493229 0.495487 0.496494
97 1 0.495154 0.49619 0.497874
253 1 0.499659 0.499804 0.496116
234 1 0.49895 0.495947 0.499253
51 1 0.500412 0.495949 0.497487
144 1 0.495955 0.498538 0.49519
173 1 0.49456 0.495114 0.498814
247 1 0.497289 0.499546 0.495696
45 1 0.498797 0.497172 0.49653
145 1 0.497138 0.498542 0.495245
54 1 0.500446 0.498126 0.495855
149 1 0.496665 0.497265 0.497371
148 1 0.497111 0.497405 0.498319
250 1 0.499161 0.498025 0.495692
147 1 0.496903 0.498219 0.497547
76 1 0.494415 0.4997 0.497711
150 1 0.496593 0.497106 0.496309
188 1 0.496517 0.498702 0.499729
98 1 0.495988 0.496943 0.49819
151 1 0.496093 0.495921 0.497246
248 1 0.497884 0.499366 0.494865
52 1 0.499047 0.495941 0.496435
82 1 0.494999 0.498636 0.497924
96 1 0.495139 0.496351 0.496795
95 1 0.494033 0.495939 0.496932
27 1 0.498394 0.499358 0.499941
207 1 0.498848 0.499224 0.497359
194 1 0.497682 0.501109 0.498399
244 1 0.499014 0.498085 0.497689
55 1 0.500904 0.497668 0.497025
83 1 0.494895 0.497991 0.496712
143 1 0.496538 0.499865 0.494979
155 1 0.494647 0.495622 0.495939
44 1 0.497555 0.497606 0.496774
43 1 0.497003 0.496378 0.497848
40 1 0.496941 0.497055 0.499348
41 1 0.497923 0.497565 0.499407
130 1 0.496499 0.499908 0.498015
251 1 0.499948 0.498908 0.495251
68 1 0.497509 0.499224 0.498032
131 1 0.496321 0.49919 0.497218
142 1 0.497287 0.500625 0.495588
73 1 0.494233 0.497808 0.498618
132 1 0.495965 0.499233 0.496122
205 1 0.499118 0.500288 0.499374
217 1 0.499229 0.501582 0.49568
69 1 0.497177 0.498324 0.498744
106 1 0.498389 0.496033 0.500278
187 1 0.496316 0.499204 0.500829
28 1 0.498433 0.498308 0.500252
190 1 0.497128 0.499482 0.499532
191 1 0.49786 0.498993 0.499067
186 1 0.496136 0.498093 0.501153
70 1 0.496231 0.497797 0.49891
242 1 0.498474 0.497171 0.498254
29 1 0.497269 0.498742 0.500665
240 1 0.498748 0.498278 0.499058
99 1 0.496605 0.495842 0.498827
39 1 0.495967 0.496427 0.499457
237 1 0.500244 0.498885 0.499987
37 1 0.495274 0.49461 0.500203
36 1 0.494434 0.495058 0.500031
32 1 0.495634 0.496826 0.500387
107 1 0.497317 0.496088 0.499988
31 1 0.496527 0.497838 0.500273
30 1 0.497418 0.498287 0.499804
38 1 0.495987 0.495241 0.499839
35 1 0.494456 0.496227 0.500035
33 1 0.494187 0.495676 0.500942
166 1 0.492696 0.495644 0.498699
176 1 0.493551 0.496877 0.50029
177 1 0.494543 0.497552 0.500114
178 1 0.494809 0.498144 0.50102
167 1 0.492961 0.496749 0.498746
174 1 0.494166 0.496003 0.498135
74 1 0.494592 0.498895 0.499139
184 1 0.496183 0.497982 0.50317
185 1 0.496614 0.497429 0.502098
17 1 0.497311 0.500403 0.50277
180 1 0.494866 0.499292 0.501331
117 1 0.49799 0.49983 0.503919
114 1 0.498268 0.498746 0.501361
111 1 0.497647 0.49751 0.500501
109 1 0.497428 0.495772 0.500937
181 1 0.495727 0.49963 0.501766
115 1 0.49788 0.498305 0.502506
118 1 0.498116 0.49929 0.503028
113 1 0.497372 0.498245 0.501536
175 1 0.49371 0.495823 0.499191
108 1 0.49631 0.495781 0.500877
116 1 0.496948 0.499051 0.503336
112 1 0.498001 0.497517 0.501662
110 1 0.496777 0.496883 0.500651
121 1 0.49816 0.500083 0.502006
182 1 0.49652 0.499698 0.502509
34 1 0.495272 0.495738 0.500587
170 1 0.49503 0.495983 0.498983
179 1 0.494342 0.498878 0.500092
172 1 0.49543 0.494602 0.498848
10 1 0.498363 0.500609 0.501032
75 1 0.494367 0.499934 0.499081
171 1 0.495809 0.495451 0.498245
168 1 0.493703 0.497593 0.499415
169 1 0.494224 0.496793 0.499069
77 1 0.493507 0.499981 0.498285
65 1 0.496888 0.501386 0.49668
209 1 0.498592 0.500315 0.498314
204 1 0.499087 0.501143 0.498722
133 1 0.49502 0.499391 0.496721
137 1 0.496138 0.501985 0.49783
208 1 0.498042 0.500011 0.497571
198 1 0.497984 0.502749 0.499536
215 1 0.497767 0.500607 0.496504
196 1 0.496972 0.503033 0.498392
210 1 0.498804 0.501122 0.497585
197 1 0.497228 0.503435 0.499413
200 1 0.49901 0.502607 0.499982
138 1 0.49617 0.500965 0.497344
134 1 0.49565 0.500178 0.497401
23 1 0.496714 0.501825 0.500235
136 1 0.496262 0.501153 0.498308
25 1 0.497984 0.500492 0.500019
214 1 0.498542 0.501309 0.496427
199 1 0.497727 0.50301 0.500524
135 1 0.49543 0.50058 0.498453
26 1 0.499057 0.500004 0.500367
213 1 0.498727 0.502356 0.496252
195 1 0.497356 0.502027 0.4986
127 1 0.495432 0.498934 0.500328
63 1 0.498394 0.501942 0.498276
62 1 0.498523 0.501834 0.499307
189 1 0.496008 0.499755 0.499015
139 1 0.496169 0.500928 0.495764
221 1 0.499452 0.500192 0.497717
220 1 0.498833 0.500225 0.496786
64 1 0.497943 0.501824 0.497113
66 1 0.497073 0.500577 0.497527
67 1 0.497263 0.4996 0.497003
140 1 0.495465 0.500164 0.495397
129 1 0.496414 0.498908 0.498356
141 1 0.496827 0.500147 0.496338
24 1 0.497406 0.501455 0.499563
21 1 0.497384 0.501931 0.501562
183 1 0.496581 0.499017 0.501771
124 1 0.495923 0.501049 0.499355
22 1 0.497898 0.502011 0.500267
126 1 0.495318 0.499763 0.499724
1 1 0.500144 0.502103 0.502243
3 1 0.500262 0.503071 0.500426
20 1 0.497172 0.501398 0.502571
19 1 0.496406 0.50073 0.502321
13 1 0.49845 0.501974 0.502623
119 1 0.498746 0.499199 0.502157
12 1 0.498687 0.501852 0.50163
122 1 0.497758 0.499778 0.500914
120 1 0.497608 0.499225 0.50207
2 1 0.500095 0.503409 0.501533
18 1 0.497235 0.500486 0.501624
16 1 0.498504 0.500534 0.503039
11 1 0.49923 0.500982 0.501178
125 1 0.494922 0.500801 0.499334
123 1 0.496801 0.50041 0.500066
233 1 0.499378 0.497094 0.498753
56 1 0.499913 0.498015 0.497192
225 1 0.500745 0.499212 0.496006
57 1 0.500785 0.498352 0.497855
229 1 0.502013 0.49738 0.497231
239 1 0.499817 0.498428 0.498867
230 1 0.501814 0.497245 0.498637
232 1 0.500318 0.49742 0.499178
256 1 0.498746 0.499805 0.494522
226 1 0.501117 0.49865 0.496767
231 1 0.500696 0.497158 0.498268
228 1 0.501862 0.49762 0.496227
238 1 0.499343 0.49911 0.49945
254 1 0.498641 0.499278 0.495602
227 1 0.501835 0.498599 0.495933
58 1 0.499748 0.499105 0.497847
252 1 0.499877 0.498793 0.496294
9 1 0.499153 0.500006 0.501548
60 1 0.500008 0.500437 0.498707
61 1 0.500237 0.500777 0.49964
202 1 0.499009 0.501583 0.500317
203 1 0.499823 0.502039 0.499754
201 1 0.498897 0.502907 0.500944
211 1 0.499046 0.50217 0.497462
212 1 0.499267 0.503084 0.496772
224 1 0.500384 0.50015 0.496885
255 1 0.499853 0.500031 0.494976
223 1 0.500891 0.500263 0.497838
59 1 0.500419 0.49945 0.498673
222 1 0.501063 0.500372 0.498844
8 1 0.499769 0.499273 0.500986
6 1 0.500214 0.500475 0.501623
7 1 0.500171 0.499299 0.502033
14 1 0.497916 0.501848 0.503506
5 1 0.499461 0.501201 0.502478
15 1 0.497769 0.500813 0.503861
4 1 0.499968 0.502375 0.501339
ITEM: TIMESTEP
364000
ITEM: NUMBER OF ATOMS
256
ITEM: BOX BOUNDS mm mm mm
-500 500
-500 500
-500 500
ITEM: ATOMS id type xs ys zs
78 1 0.49231 0.499987 0.497906
88 1 0.493778 0.498482 0.496826
79 1 0.492325 0.498702 0.498621
160 1 0.493686 0.49862 0.494482
161 1 0.492895 0.499032 0.4951
162 1 0.493823 0.498808 0.495801
163 1 0.492971 0.498285 0.496153
164 1 0.49242 0.497555 0.495687
165 1 0.492944 0.497262 0.49653
158 1 0.493731 0.496842 0.495117
157 1 0.493467 0.495925 0.494237
92 1 0.493568 0.49574 0.496656
90 1 0.493905 0.497671 0.4961
80 1 0.49269 0.498746 0.497405
91 1 0.49409 0.496566 0.496193
81 1 0.493194 0.497686 0.497422
156 1 0.492588 0.495301 0.494678
219 1 0.499191 0.501509 0.497259
241 1 0.498316 0.497925 0.498712
89 1 0.494422 0.497351 0.496935
236 1 0.497668 0.497533 0.500495
249 1 0.498289 0.498013 0.495895
104 1 0.498113 0.495135 0.499171
218 1 0.499116 0.501713 0.496159
84 1 0.495582 0.497168 0.497199
87 1 0.494895 0.498762 0.496551
86 1 0.49501 0.497813 0.495936
206 1 0.498842 0.498986 0.49737
246 1 0.49767 0.497347 0.497587
216 1 0.498308 0.501829 0.496663
47 1 0.498394 0.495496 0.497731
72 1 0.495465 0.498381 0.499381
193 1 0.496839 0.499808 0.49898
245 1 0.497962 0.498324 0.497662
103 1 0.497462 0.495404 0.498335
146 1 0.497308 0.497875 0.495226
152 1 0.494965 0.494938 0.495253
154 1 0.493404 0.495104 0.495872
101 1 0.496917 0.494769 0.498877
53 1 0.498646 0.496764 0.49646
50 1 0.499675 0.495618 0.497683
100 1 0.496464 0.495746 0.498637
102 1 0.496691 0.49498 0.497684
243 1 0.498775 0.496923 0.49867
159 1 0.49328 0.497727 0.495082
94 1 0.494162 0.495894 0.498054
192 1 0.497775 0.498826 0.499086
153 1 0.494092 0.495807 0.495185
71 1 0.496308 0.497752 0.49909
85 1 0.495292 0.496679 0.496276
48 1 0.498903 0.494637 0.498163
42 1 0.497347 0.496101 0.49909
46 1 0.498862 0.496356 0.497343
235 1 0.498601 0.498108 0.501116
49 1 0.499456 0.495401 0.498691
128 1 0.494647 0.498653 0.50022
105 1 0.497024 0.495226 0.499791
93 1 0.493256 0.495795 0.497709
97 1 0.494865 0.496898 0.497824
253 1 0.499682 0.499291 0.495815
234 1 0.499023 0.497404 0.500577
51 1 0.499692 0.496837 0.4978
144 1 0.495716 0.499337 0.495734
173 1 0.494259 0.495264 0.499106
247 1 0.49722 0.498368 0.496816
45 1 0.497828 0.49595 0.497001
145 1 0.496058 0.498426 0.495117
54 1 0.499551 0.497401 0.496682
149 1 0.496498 0.496086 0.496785
148 1 0.496703 0.497393 0.497093
250 1 0.497554 0.497429 0.496532
147 1 0.496327 0.497782 0.496044
76 1 0.493662 0.499961 0.498147
150 1 0.495825 0.495271 0.496354
188 1 0.495963 0.500103 0.500417
98 1 0.495786 0.495783 0.49751
151 1 0.494484 0.495479 0.496145
248 1 0.498008 0.49889 0.49533
52 1 0.499769 0.496469 0.496749
82 1 0.494132 0.497853 0.497939
96 1 0.49465 0.496206 0.497036
95 1 0.493779 0.496624 0.497456
27 1 0.498771 0.499998 0.501232
207 1 0.498015 0.499007 0.496682
194 1 0.497835 0.50009 0.499416
244 1 0.499058 0.497775 0.497832
55 1 0.499998 0.497958 0.497559
83 1 0.495013 0.498031 0.497448
143 1 0.496637 0.499497 0.496228
155 1 0.492829 0.495923 0.495498
44 1 0.497988 0.496438 0.498126
43 1 0.498126 0.496086 0.49965
40 1 0.495775 0.496671 0.498432
41 1 0.496932 0.497019 0.498461
130 1 0.495555 0.499421 0.498773
251 1 0.498599 0.497834 0.496831
68 1 0.497462 0.499265 0.497982
131 1 0.496134 0.498668 0.498247
142 1 0.497285 0.500452 0.495976
73 1 0.494293 0.49844 0.498997
132 1 0.495932 0.498265 0.497116
205 1 0.499342 0.499878 0.498063
217 1 0.498505 0.502488 0.495751
69 1 0.497071 0.498 0.498207
106 1 0.496665 0.496095 0.500545
187 1 0.495965 0.500499 0.501443
28 1 0.499143 0.499076 0.500763
190 1 0.496753 0.498752 0.499207
191 1 0.497472 0.497854 0.499314
186 1 0.496131 0.499395 0.501249
70 1 0.496096 0.497705 0.497987
242 1 0.498445 0.497302 0.49956
29 1 0.497414 0.499268 0.501561
240 1 0.498863 0.498795 0.498379
99 1 0.496947 0.496155 0.49777
39 1 0.495612 0.496833 0.499495
237 1 0.497708 0.498569 0.500118
37 1 0.494938 0.496069 0.500045
36 1 0.494706 0.497326 0.499835
32 1 0.496282 0.497639 0.500185
107 1 0.496947 0.496868 0.499898
31 1 0.49562 0.498474 0.500498
30 1 0.496613 0.49858 0.50081
38 1 0.495965 0.495747 0.499732
35 1 0.494959 0.497655 0.500741
33 1 0.495983 0.497748 0.501346
166 1 0.492454 0.496839 0.497387
176 1 0.49324 0.497923 0.498469
177 1 0.493356 0.498613 0.499583
178 1 0.494095 0.499669 0.499198
167 1 0.492083 0.497466 0.498201
174 1 0.493878 0.496355 0.499387
74 1 0.494622 0.49923 0.497905
184 1 0.495319 0.498639 0.501426
185 1 0.496436 0.498429 0.501859
17 1 0.497669 0.501436 0.502775
180 1 0.494295 0.499966 0.500152
117 1 0.49605 0.500087 0.502579
114 1 0.498208 0.498809 0.502976
111 1 0.498128 0.497187 0.502209
109 1 0.497592 0.495937 0.501378
181 1 0.493902 0.500817 0.500811
115 1 0.497563 0.498106 0.502745
118 1 0.497065 0.500389 0.50192
113 1 0.498486 0.499013 0.501683
175 1 0.493481 0.497477 0.499646